+ 0.1 0 1 tcp 40 ------- 0 0.0 1.0 0 0
- 0.1 0 1 tcp 40 ------- 0 0.0 1.0 0 0
+ 0.1 0 1 tcp 40 ------- 1 0.1 1.1 0 1
- 0.10032 0 1 tcp 40 ------- 1 0.1 1.1 0 1
r 0.11032 0 1 tcp 40 ------- 0 0.0 1.0 0 0
+ 0.11032 1 0 ack 40 ------- 0 1.0 0.0 0 2
- 0.11032 1 0 ack 40 ------- 0 1.0 0.0 0 2
r 0.11064 0 1 tcp 40 ------- 1 0.1 1.1 0 1
+ 0.11064 1 0 ack 40 ------- 1 1.1 0.1 0 3
- 0.11064 1 0 ack 40 ------- 1 1.1 0.1 0 3
r 0.12064 1 0 ack 40 ------- 0 1.0 0.0 0 2
+ 0.12064 0 1 tcp 40 ------- 0 0.0 1.0 1 4
- 0.12064 0 1 tcp 40 ------- 0 0.0 1.0 1 4
+ 0.12064 0 1 tcp 576 ------- 0 0.0 1.0 1 5
+ 0.12064 0 1 tcp 576 ------- 0 0.0 1.0 537 6
r 0.12096 1 0 ack 40 ------- 1 1.1 0.1 0 3
+ 0.12096 0 1 tcp 40 ------- 1 0.1 1.1 1 7
+ 0.12096 0 1 tcp 576 ------- 1 0.1 1.1 1 8
+ 0.12096 0 1 tcp 576 ------- 1 0.1 1.1 537 9
- 0.12096 0 1 tcp 576 ------- 0 0.0 1.0 1 5
- 0.125568 0 1 tcp 576 ------- 0 0.0 1.0 537 6
- 0.130176 0 1 tcp 40 ------- 1 0.1 1.1 1 7
- 0.130496 0 1 tcp 576 ------- 1 0.1 1.1 1 8
r 0.13096 0 1 tcp 40 ------- 0 0.0 1.0 1 4
- 0.135104 0 1 tcp 576 ------- 1 0.1 1.1 537 9
r 0.135568 0 1 tcp 576 ------- 0 0.0 1.0 1 5
+ 0.135568 1 0 ack 40 ------- 0 1.0 0.0 1 10
- 0.135568 1 0 ack 40 ------- 0 1.0 0.0 1 10
r 0.140176 0 1 tcp 576 ------- 0 0.0 1.0 537 6
+ 0.140176 1 0 ack 40 ------- 0 1.0 0.0 1 11
- 0.140176 1 0 ack 40 ------- 0 1.0 0.0 1 11
r 0.140496 0 1 tcp 40 ------- 1 0.1 1.1 1 7
r 0.145104 0 1 tcp 576 ------- 1 0.1 1.1 1 8
+ 0.145104 1 0 ack 40 ------- 1 1.1 0.1 1 12
- 0.145104 1 0 ack 40 ------- 1 1.1 0.1 1 12
r 0.145888 1 0 ack 40 ------- 0 1.0 0.0 1 10
+ 0.145888 0 1 tcp 576 ------- 0 0.0 1.0 1073 13
- 0.145888 0 1 tcp 576 ------- 0 0.0 1.0 1073 13
+ 0.145888 0 1 tcp 576 ------- 0 0.0 1.0 1609 14
r 0.149712 0 1 tcp 576 ------- 1 0.1 1.1 537 9
+ 0.149712 1 0 ack 40 ------- 1 1.1 0.1 1 15
- 0.149712 1 0 ack 40 ------- 1 1.1 0.1 1 15
r 0.150496 1 0 ack 40 ------- 0 1.0 0.0 1 11
+ 0.150496 0 1 tcp 576 ------- 0 0.0 1.0 2145 16
+ 0.150496 0 1 tcp 576 ------- 0 0.0 1.0 2681 17
- 0.150496 0 1 tcp 576 ------- 0 0.0 1.0 1609 14
- 0.155104 0 1 tcp 576 ------- 0 0.0 1.0 2145 16
r 0.155424 1 0 ack 40 ------- 1 1.1 0.1 1 12
+ 0.155424 0 1 tcp 576 ------- 1 0.1 1.1 1073 18
+ 0.155424 0 1 tcp 576 ------- 1 0.1 1.1 1609 19
- 0.159712 0 1 tcp 576 ------- 0 0.0 1.0 2681 17
r 0.160032 1 0 ack 40 ------- 1 1.1 0.1 1 15
+ 0.160032 0 1 tcp 576 ------- 1 0.1 1.1 2145 20
+ 0.160032 0 1 tcp 576 ------- 1 0.1 1.1 2681 21
r 0.160496 0 1 tcp 576 ------- 0 0.0 1.0 1073 13
+ 0.160496 1 0 ack 40 ------- 0 1.0 0.0 1 22
- 0.160496 1 0 ack 40 ------- 0 1.0 0.0 1 22
- 0.16432 0 1 tcp 576 ------- 1 0.1 1.1 1073 18
r 0.165104 0 1 tcp 576 ------- 0 0.0 1.0 1609 14
+ 0.165104 1 0 ack 40 ------- 0 1.0 0.0 1 23
- 0.165104 1 0 ack 40 ------- 0 1.0 0.0 1 23
- 0.168928 0 1 tcp 576 ------- 1 0.1 1.1 1609 19
r 0.169712 0 1 tcp 576 ------- 0 0.0 1.0 2145 16
+ 0.169712 1 0 ack 40 ------- 0 1.0 0.0 1 24
- 0.169712 1 0 ack 40 ------- 0 1.0 0.0 1 24
r 0.170816 1 0 ack 40 ------- 0 1.0 0.0 1 22
+ 0.170816 0 1 tcp 576 ------- 0 0.0 1.0 3217 25
+ 0.170816 0 1 tcp 576 ------- 0 0.0 1.0 3753 26
- 0.173536 0 1 tcp 576 ------- 1 0.1 1.1 2145 20
r 0.17432 0 1 tcp 576 ------- 0 0.0 1.0 2681 17
+ 0.17432 1 0 ack 40 ------- 0 1.0 0.0 1 27
- 0.17432 1 0 ack 40 ------- 0 1.0 0.0 1 27
r 0.175424 1 0 ack 40 ------- 0 1.0 0.0 1 23
+ 0.175424 0 1 tcp 576 ------- 0 0.0 1.0 4289 28
+ 0.175424 0 1 tcp 576 ------- 0 0.0 1.0 4825 29
- 0.178144 0 1 tcp 576 ------- 1 0.1 1.1 2681 21
r 0.178928 0 1 tcp 576 ------- 1 0.1 1.1 1073 18
+ 0.178928 1 0 ack 40 ------- 1 1.1 0.1 1 30
- 0.178928 1 0 ack 40 ------- 1 1.1 0.1 1 30
r 0.180032 1 0 ack 40 ------- 0 1.0 0.0 1 24
+ 0.180032 0 1 tcp 576 ------- 0 0.0 1.0 5361 31
+ 0.180032 0 1 tcp 576 ------- 0 0.0 1.0 5897 32
- 0.182752 0 1 tcp 576 ------- 0 0.0 1.0 3217 25
r 0.183536 0 1 tcp 576 ------- 1 0.1 1.1 1609 19
+ 0.183536 1 0 ack 40 ------- 1 1.1 0.1 1 33
- 0.183536 1 0 ack 40 ------- 1 1.1 0.1 1 33
r 0.18464 1 0 ack 40 ------- 0 1.0 0.0 1 27
+ 0.18464 0 1 tcp 576 ------- 0 0.0 1.0 6433 34
+ 0.18464 0 1 tcp 576 ------- 0 0.0 1.0 6969 35
- 0.18736 0 1 tcp 576 ------- 0 0.0 1.0 3753 26
r 0.188144 0 1 tcp 576 ------- 1 0.1 1.1 2145 20
+ 0.188144 1 0 ack 40 ------- 1 1.1 0.1 1 36
- 0.188144 1 0 ack 40 ------- 1 1.1 0.1 1 36
r 0.189248 1 0 ack 40 ------- 1 1.1 0.1 1 30
+ 0.189248 0 1 tcp 576 ------- 1 0.1 1.1 3217 37
+ 0.189248 0 1 tcp 576 ------- 1 0.1 1.1 3753 38
- 0.191968 0 1 tcp 576 ------- 0 0.0 1.0 4289 28
r 0.192752 0 1 tcp 576 ------- 1 0.1 1.1 2681 21
+ 0.192752 1 0 ack 40 ------- 1 1.1 0.1 1 39
- 0.192752 1 0 ack 40 ------- 1 1.1 0.1 1 39
r 0.193856 1 0 ack 40 ------- 1 1.1 0.1 1 33
+ 0.193856 0 1 tcp 576 ------- 1 0.1 1.1 4289 40
+ 0.193856 0 1 tcp 576 ------- 1 0.1 1.1 4825 41
- 0.196576 0 1 tcp 576 ------- 0 0.0 1.0 4825 29
r 0.19736 0 1 tcp 576 ------- 0 0.0 1.0 3217 25
+ 0.19736 1 0 ack 40 ------- 0 1.0 0.0 1 42
- 0.19736 1 0 ack 40 ------- 0 1.0 0.0 1 42
r 0.198464 1 0 ack 40 ------- 1 1.1 0.1 1 36
+ 0.198464 0 1 tcp 576 ------- 1 0.1 1.1 5361 43
+ 0.198464 0 1 tcp 576 ------- 1 0.1 1.1 5897 44
d 0.198464 0 1 tcp 576 ------- 1 0.1 1.1 5897 44
- 0.201184 0 1 tcp 576 ------- 0 0.0 1.0 5361 31
r 0.201968 0 1 tcp 576 ------- 0 0.0 1.0 3753 26
+ 0.201968 1 0 ack 40 ------- 0 1.0 0.0 1 45
- 0.201968 1 0 ack 40 ------- 0 1.0 0.0 1 45
r 0.203072 1 0 ack 40 ------- 1 1.1 0.1 1 39
+ 0.203072 0 1 tcp 576 ------- 1 0.1 1.1 6433 46
+ 0.203072 0 1 tcp 576 ------- 1 0.1 1.1 6969 47
d 0.203072 0 1 tcp 576 ------- 1 0.1 1.1 6969 47
- 0.205792 0 1 tcp 576 ------- 0 0.0 1.0 5897 32
r 0.206576 0 1 tcp 576 ------- 0 0.0 1.0 4289 28
+ 0.206576 1 0 ack 40 ------- 0 1.0 0.0 1 48
- 0.206576 1 0 ack 40 ------- 0 1.0 0.0 1 48
r 0.20768 1 0 ack 40 ------- 0 1.0 0.0 1 42
+ 0.20768 0 1 tcp 576 ------- 0 0.0 1.0 7505 49
+ 0.20768 0 1 tcp 576 ------- 0 0.0 1.0 8041 50
d 0.20768 0 1 tcp 576 ------- 0 0.0 1.0 8041 50
- 0.2104 0 1 tcp 576 ------- 0 0.0 1.0 6433 34
r 0.211184 0 1 tcp 576 ------- 0 0.0 1.0 4825 29
+ 0.211184 1 0 ack 40 ------- 0 1.0 0.0 1 51
- 0.211184 1 0 ack 40 ------- 0 1.0 0.0 1 51
r 0.212288 1 0 ack 40 ------- 0 1.0 0.0 1 45
+ 0.212288 0 1 tcp 576 ------- 0 0.0 1.0 8577 52
+ 0.212288 0 1 tcp 576 ------- 0 0.0 1.0 9113 53
d 0.212288 0 1 tcp 576 ------- 0 0.0 1.0 9113 53
- 0.215008 0 1 tcp 576 ------- 0 0.0 1.0 6969 35
r 0.215792 0 1 tcp 576 ------- 0 0.0 1.0 5361 31
+ 0.215792 1 0 ack 40 ------- 0 1.0 0.0 1 54
- 0.215792 1 0 ack 40 ------- 0 1.0 0.0 1 54
r 0.216896 1 0 ack 40 ------- 0 1.0 0.0 1 48
+ 0.216896 0 1 tcp 576 ------- 0 0.0 1.0 9649 55
+ 0.216896 0 1 tcp 576 ------- 0 0.0 1.0 10185 56
d 0.216896 0 1 tcp 576 ------- 0 0.0 1.0 10185 56
- 0.219616 0 1 tcp 576 ------- 1 0.1 1.1 3217 37
r 0.2204 0 1 tcp 576 ------- 0 0.0 1.0 5897 32
+ 0.2204 1 0 ack 40 ------- 0 1.0 0.0 1 57
- 0.2204 1 0 ack 40 ------- 0 1.0 0.0 1 57
r 0.221504 1 0 ack 40 ------- 0 1.0 0.0 1 51
+ 0.221504 0 1 tcp 576 ------- 0 0.0 1.0 10721 58
+ 0.221504 0 1 tcp 576 ------- 0 0.0 1.0 11257 59
d 0.221504 0 1 tcp 576 ------- 0 0.0 1.0 11257 59
- 0.224224 0 1 tcp 576 ------- 1 0.1 1.1 3753 38
r 0.225008 0 1 tcp 576 ------- 0 0.0 1.0 6433 34
+ 0.225008 1 0 ack 40 ------- 0 1.0 0.0 1 60
- 0.225008 1 0 ack 40 ------- 0 1.0 0.0 1 60
r 0.226112 1 0 ack 40 ------- 0 1.0 0.0 1 54
+ 0.226112 0 1 tcp 576 ------- 0 0.0 1.0 11793 61
+ 0.226112 0 1 tcp 576 ------- 0 0.0 1.0 12329 62
d 0.226112 0 1 tcp 576 ------- 0 0.0 1.0 12329 62
- 0.228832 0 1 tcp 576 ------- 1 0.1 1.1 4289 40
r 0.229616 0 1 tcp 576 ------- 0 0.0 1.0 6969 35
+ 0.229616 1 0 ack 40 ------- 0 1.0 0.0 1 63
- 0.229616 1 0 ack 40 ------- 0 1.0 0.0 1 63
r 0.23072 1 0 ack 40 ------- 0 1.0 0.0 1 57
+ 0.23072 0 1 tcp 576 ------- 0 0.0 1.0 12865 64
+ 0.23072 0 1 tcp 576 ------- 0 0.0 1.0 13401 65
d 0.23072 0 1 tcp 576 ------- 0 0.0 1.0 13401 65
- 0.23344 0 1 tcp 576 ------- 1 0.1 1.1 4825 41
r 0.234224 0 1 tcp 576 ------- 1 0.1 1.1 3217 37
+ 0.234224 1 0 ack 40 ------- 1 1.1 0.1 1 66
- 0.234224 1 0 ack 40 ------- 1 1.1 0.1 1 66
r 0.235328 1 0 ack 40 ------- 0 1.0 0.0 1 60
+ 0.235328 0 1 tcp 576 ------- 0 0.0 1.0 13937 67
+ 0.235328 0 1 tcp 576 ------- 0 0.0 1.0 14473 68
d 0.235328 0 1 tcp 576 ------- 0 0.0 1.0 14473 68
- 0.238048 0 1 tcp 576 ------- 1 0.1 1.1 5361 43
r 0.238832 0 1 tcp 576 ------- 1 0.1 1.1 3753 38
+ 0.238832 1 0 ack 40 ------- 1 1.1 0.1 1 69
- 0.238832 1 0 ack 40 ------- 1 1.1 0.1 1 69
r 0.239936 1 0 ack 40 ------- 0 1.0 0.0 1 63
+ 0.239936 0 1 tcp 576 ------- 0 0.0 1.0 15009 70
+ 0.239936 0 1 tcp 576 ------- 0 0.0 1.0 15545 71
d 0.239936 0 1 tcp 576 ------- 0 0.0 1.0 15545 71
- 0.242656 0 1 tcp 576 ------- 1 0.1 1.1 6433 46
r 0.24344 0 1 tcp 576 ------- 1 0.1 1.1 4289 40
+ 0.24344 1 0 ack 40 ------- 1 1.1 0.1 1 72
- 0.24344 1 0 ack 40 ------- 1 1.1 0.1 1 72
r 0.244544 1 0 ack 40 ------- 1 1.1 0.1 1 66
+ 0.244544 0 1 tcp 576 ------- 1 0.1 1.1 7505 73
+ 0.244544 0 1 tcp 576 ------- 1 0.1 1.1 8041 74
d 0.244544 0 1 tcp 576 ------- 1 0.1 1.1 8041 74
- 0.247264 0 1 tcp 576 ------- 0 0.0 1.0 7505 49
r 0.248048 0 1 tcp 576 ------- 1 0.1 1.1 4825 41
+ 0.248048 1 0 ack 40 ------- 1 1.1 0.1 1 75
- 0.248048 1 0 ack 40 ------- 1 1.1 0.1 1 75
r 0.249152 1 0 ack 40 ------- 1 1.1 0.1 1 69
+ 0.249152 0 1 tcp 576 ------- 1 0.1 1.1 8577 76
+ 0.249152 0 1 tcp 576 ------- 1 0.1 1.1 9113 77
d 0.249152 0 1 tcp 576 ------- 1 0.1 1.1 9113 77
- 0.251872 0 1 tcp 576 ------- 0 0.0 1.0 8577 52
r 0.252656 0 1 tcp 576 ------- 1 0.1 1.1 5361 43
+ 0.252656 1 0 ack 40 ------- 1 1.1 0.1 1 78
- 0.252656 1 0 ack 40 ------- 1 1.1 0.1 1 78
r 0.25376 1 0 ack 40 ------- 1 1.1 0.1 1 72
+ 0.25376 0 1 tcp 576 ------- 1 0.1 1.1 9649 79
+ 0.25376 0 1 tcp 576 ------- 1 0.1 1.1 10185 80
d 0.25376 0 1 tcp 576 ------- 1 0.1 1.1 10185 80
- 0.25648 0 1 tcp 576 ------- 0 0.0 1.0 9649 55
r 0.257264 0 1 tcp 576 ------- 1 0.1 1.1 6433 46
+ 0.257264 1 0 ack 40 ------- 1 1.1 0.1 1 81
- 0.257264 1 0 ack 40 ------- 1 1.1 0.1 1 81
r 0.258368 1 0 ack 40 ------- 1 1.1 0.1 1 75
+ 0.258368 0 1 tcp 576 ------- 1 0.1 1.1 10721 82
+ 0.258368 0 1 tcp 576 ------- 1 0.1 1.1 11257 83
d 0.258368 0 1 tcp 576 ------- 1 0.1 1.1 11257 83
- 0.261088 0 1 tcp 576 ------- 0 0.0 1.0 10721 58
r 0.261872 0 1 tcp 576 ------- 0 0.0 1.0 7505 49
+ 0.261872 1 0 ack 40 ------- 0 1.0 0.0 1 84
- 0.261872 1 0 ack 40 ------- 0 1.0 0.0 1 84
r 0.262976 1 0 ack 40 ------- 1 1.1 0.1 1 78
+ 0.262976 0 1 tcp 576 ------- 1 0.1 1.1 11793 85
+ 0.262976 0 1 tcp 576 ------- 1 0.1 1.1 12329 86
d 0.262976 0 1 tcp 576 ------- 1 0.1 1.1 12329 86
- 0.265696 0 1 tcp 576 ------- 0 0.0 1.0 11793 61
r 0.26648 0 1 tcp 576 ------- 0 0.0 1.0 8577 52
+ 0.26648 1 0 ack 40 ------- 0 1.0 0.0 1 87
- 0.26648 1 0 ack 40 ------- 0 1.0 0.0 1 87
r 0.267584 1 0 ack 40 ------- 1 1.1 0.1 1 81
- 0.270304 0 1 tcp 576 ------- 0 0.0 1.0 12865 64
r 0.271088 0 1 tcp 576 ------- 0 0.0 1.0 9649 55
+ 0.271088 1 0 ack 40 ------- 0 1.0 0.0 1 88
- 0.271088 1 0 ack 40 ------- 0 1.0 0.0 1 88
r 0.272192 1 0 ack 40 ------- 0 1.0 0.0 1 84
+ 0.272192 0 1 tcp 576 ------- 0 0.0 1.0 16081 89
+ 0.272192 0 1 tcp 576 ------- 0 0.0 1.0 16617 90
- 0.274912 0 1 tcp 576 ------- 0 0.0 1.0 13937 67
r 0.275696 0 1 tcp 576 ------- 0 0.0 1.0 10721 58
+ 0.275696 1 0 ack 40 ------- 0 1.0 0.0 1 91
- 0.275696 1 0 ack 40 ------- 0 1.0 0.0 1 91
r 0.2768 1 0 ack 40 ------- 0 1.0 0.0 1 87
- 0.27952 0 1 tcp 576 ------- 0 0.0 1.0 15009 70
r 0.280304 0 1 tcp 576 ------- 0 0.0 1.0 11793 61
+ 0.280304 1 0 ack 40 ------- 0 1.0 0.0 1 92
- 0.280304 1 0 ack 40 ------- 0 1.0 0.0 1 92
r 0.281408 1 0 ack 40 ------- 0 1.0 0.0 1 88
- 0.284128 0 1 tcp 576 ------- 1 0.1 1.1 7505 73
r 0.284912 0 1 tcp 576 ------- 0 0.0 1.0 12865 64
+ 0.284912 1 0 ack 40 ------- 0 1.0 0.0 1 93
- 0.284912 1 0 ack 40 ------- 0 1.0 0.0 1 93
r 0.286016 1 0 ack 40 ------- 0 1.0 0.0 1 91
+ 0.286016 0 1 tcp 576 ------- 0 0.0 1.0 8041 94
- 0.288736 0 1 tcp 576 ------- 1 0.1 1.1 8577 76
r 0.28952 0 1 tcp 576 ------- 0 0.0 1.0 13937 67
+ 0.28952 1 0 ack 40 ------- 0 1.0 0.0 1 95
- 0.28952 1 0 ack 40 ------- 0 1.0 0.0 1 95
r 0.290624 1 0 ack 40 ------- 0 1.0 0.0 1 92
- 0.293344 0 1 tcp 576 ------- 1 0.1 1.1 9649 79
r 0.294128 0 1 tcp 576 ------- 0 0.0 1.0 15009 70
+ 0.294128 1 0 ack 40 ------- 0 1.0 0.0 1 96
- 0.294128 1 0 ack 40 ------- 0 1.0 0.0 1 96
r 0.295232 1 0 ack 40 ------- 0 1.0 0.0 1 93
- 0.297952 0 1 tcp 576 ------- 1 0.1 1.1 10721 82
r 0.298736 0 1 tcp 576 ------- 1 0.1 1.1 7505 73
+ 0.298736 1 0 ack 40 ------- 1 1.1 0.1 1 97
- 0.298736 1 0 ack 40 ------- 1 1.1 0.1 1 97
r 0.29984 1 0 ack 40 ------- 0 1.0 0.0 1 95
- 0.30256 0 1 tcp 576 ------- 1 0.1 1.1 11793 85
r 0.303344 0 1 tcp 576 ------- 1 0.1 1.1 8577 76
+ 0.303344 1 0 ack 40 ------- 1 1.1 0.1 1 98
- 0.303344 1 0 ack 40 ------- 1 1.1 0.1 1 98
r 0.304448 1 0 ack 40 ------- 0 1.0 0.0 1 96
- 0.307168 0 1 tcp 576 ------- 0 0.0 1.0 16081 89
r 0.307952 0 1 tcp 576 ------- 1 0.1 1.1 9649 79
+ 0.307952 1 0 ack 40 ------- 1 1.1 0.1 1 99
- 0.307952 1 0 ack 40 ------- 1 1.1 0.1 1 99
r 0.309056 1 0 ack 40 ------- 1 1.1 0.1 1 97
- 0.311776 0 1 tcp 576 ------- 0 0.0 1.0 16617 90
r 0.31256 0 1 tcp 576 ------- 1 0.1 1.1 10721 82
+ 0.31256 1 0 ack 40 ------- 1 1.1 0.1 1 100
- 0.31256 1 0 ack 40 ------- 1 1.1 0.1 1 100
r 0.313664 1 0 ack 40 ------- 1 1.1 0.1 1 98
+ 0.313664 0 1 tcp 576 ------- 1 0.1 1.1 5897 101
- 0.316384 0 1 tcp 576 ------- 0 0.0 1.0 8041 94
r 0.317168 0 1 tcp 576 ------- 1 0.1 1.1 11793 85
+ 0.317168 1 0 ack 40 ------- 1 1.1 0.1 1 102
- 0.317168 1 0 ack 40 ------- 1 1.1 0.1 1 102
r 0.318272 1 0 ack 40 ------- 1 1.1 0.1 1 99
- 0.320992 0 1 tcp 576 ------- 1 0.1 1.1 5897 101
r 0.321776 0 1 tcp 576 ------- 0 0.0 1.0 16081 89
+ 0.321776 1 0 ack 40 ------- 0 1.0 0.0 1 103
- 0.321776 1 0 ack 40 ------- 0 1.0 0.0 1 103
r 0.32288 1 0 ack 40 ------- 1 1.1 0.1 1 100
r 0.326384 0 1 tcp 576 ------- 0 0.0 1.0 16617 90
+ 0.326384 1 0 ack 40 ------- 0 1.0 0.0 1 104
- 0.326384 1 0 ack 40 ------- 0 1.0 0.0 1 104
r 0.327488 1 0 ack 40 ------- 1 1.1 0.1 1 102
r 0.330992 0 1 tcp 576 ------- 0 0.0 1.0 8041 94
+ 0.330992 1 0 ack 40 ------- 0 1.0 0.0 1 105
- 0.330992 1 0 ack 40 ------- 0 1.0 0.0 1 105
r 0.332096 1 0 ack 40 ------- 0 1.0 0.0 1 103
r 0.3356 0 1 tcp 576 ------- 1 0.1 1.1 5897 101
+ 0.3356 1 0 ack 40 ------- 1 1.1 0.1 1 106
- 0.3356 1 0 ack 40 ------- 1 1.1 0.1 1 106
r 0.336704 1 0 ack 40 ------- 0 1.0 0.0 1 104
r 0.341312 1 0 ack 40 ------- 0 1.0 0.0 1 105
r 0.34592 1 0 ack 40 ------- 1 1.1 0.1 1 106
+ 0.541312 0 1 tcp 576 ------- 0 0.0 1.0 9113 107
- 0.541312 0 1 tcp 576 ------- 0 0.0 1.0 9113 107
+ 0.54592 0 1 tcp 576 ------- 1 0.1 1.1 6969 108
- 0.54592 0 1 tcp 576 ------- 1 0.1 1.1 6969 108
r 0.55592 0 1 tcp 576 ------- 0 0.0 1.0 9113 107
+ 0.55592 1 0 ack 40 ------- 0 1.0 0.0 1 109
- 0.55592 1 0 ack 40 ------- 0 1.0 0.0 1 109
r 0.560528 0 1 tcp 576 ------- 1 0.1 1.1 6969 108
+ 0.560528 1 0 ack 40 ------- 1 1.1 0.1 1 110
- 0.560528 1 0 ack 40 ------- 1 1.1 0.1 1 110
r 0.56624 1 0 ack 40 ------- 0 1.0 0.0 1 109
+ 0.56624 0 1 tcp 576 ------- 0 0.0 1.0 10185 111
- 0.56624 0 1 tcp 576 ------- 0 0.0 1.0 10185 111
+ 0.56624 0 1 tcp 576 ------- 0 0.0 1.0 10721 112
r 0.570848 1 0 ack 40 ------- 1 1.1 0.1 1 110
+ 0.570848 0 1 tcp 576 ------- 1 0.1 1.1 8041 113
+ 0.570848 0 1 tcp 576 ------- 1 0.1 1.1 8577 114
- 0.570848 0 1 tcp 576 ------- 0 0.0 1.0 10721 112
- 0.575456 0 1 tcp 576 ------- 1 0.1 1.1 8041 113
- 0.580064 0 1 tcp 576 ------- 1 0.1 1.1 8577 114
r 0.580848 0 1 tcp 576 ------- 0 0.0 1.0 10185 111
+ 0.580848 1 0 ack 40 ------- 0 1.0 0.0 1 115
- 0.580848 1 0 ack 40 ------- 0 1.0 0.0 1 115
r 0.585456 0 1 tcp 576 ------- 0 0.0 1.0 10721 112
+ 0.585456 1 0 ack 40 ------- 0 1.0 0.0 1 116
- 0.585456 1 0 ack 40 ------- 0 1.0 0.0 1 116
r 0.590064 0 1 tcp 576 ------- 1 0.1 1.1 8041 113
+ 0.590064 1 0 ack 40 ------- 1 1.1 0.1 1 117
- 0.590064 1 0 ack 40 ------- 1 1.1 0.1 1 117
r 0.591168 1 0 ack 40 ------- 0 1.0 0.0 1 115
+ 0.591168 0 1 tcp 576 ------- 0 0.0 1.0 11257 118
- 0.591168 0 1 tcp 576 ------- 0 0.0 1.0 11257 118
+ 0.591168 0 1 tcp 576 ------- 0 0.0 1.0 11793 119
+ 0.591168 0 1 tcp 576 ------- 0 0.0 1.0 12329 120
r 0.594672 0 1 tcp 576 ------- 1 0.1 1.1 8577 114
+ 0.594672 1 0 ack 40 ------- 1 1.1 0.1 1 121
- 0.594672 1 0 ack 40 ------- 1 1.1 0.1 1 121
r 0.595776 1 0 ack 40 ------- 0 1.0 0.0 1 116
- 0.595776 0 1 tcp 576 ------- 0 0.0 1.0 11793 119
r 0.600384 1 0 ack 40 ------- 1 1.1 0.1 1 117
+ 0.600384 0 1 tcp 576 ------- 1 0.1 1.1 9113 122
+ 0.600384 0 1 tcp 576 ------- 1 0.1 1.1 9649 123
+ 0.600384 0 1 tcp 576 ------- 1 0.1 1.1 10185 124
- 0.600384 0 1 tcp 576 ------- 0 0.0 1.0 12329 120
r 0.604992 1 0 ack 40 ------- 1 1.1 0.1 1 121
- 0.604992 0 1 tcp 576 ------- 1 0.1 1.1 9113 122
r 0.605776 0 1 tcp 576 ------- 0 0.0 1.0 11257 118
+ 0.605776 1 0 ack 40 ------- 0 1.0 0.0 1 125
- 0.605776 1 0 ack 40 ------- 0 1.0 0.0 1 125
- 0.6096 0 1 tcp 576 ------- 1 0.1 1.1 9649 123
r 0.610384 0 1 tcp 576 ------- 0 0.0 1.0 11793 119
+ 0.610384 1 0 ack 40 ------- 0 1.0 0.0 1 126
- 0.610384 1 0 ack 40 ------- 0 1.0 0.0 1 126
- 0.614208 0 1 tcp 576 ------- 1 0.1 1.1 10185 124
r 0.614992 0 1 tcp 576 ------- 0 0.0 1.0 12329 120
+ 0.614992 1 0 ack 40 ------- 0 1.0 0.0 1 127
- 0.614992 1 0 ack 40 ------- 0 1.0 0.0 1 127
r 0.616096 1 0 ack 40 ------- 0 1.0 0.0 1 125
+ 0.616096 0 1 tcp 576 ------- 0 0.0 1.0 12865 128
+ 0.616096 0 1 tcp 576 ------- 0 0.0 1.0 13401 129
+ 0.616096 0 1 tcp 576 ------- 0 0.0 1.0 13937 130
- 0.618816 0 1 tcp 576 ------- 0 0.0 1.0 12865 128
r 0.6196 0 1 tcp 576 ------- 1 0.1 1.1 9113 122
+ 0.6196 1 0 ack 40 ------- 1 1.1 0.1 1 131
- 0.6196 1 0 ack 40 ------- 1 1.1 0.1 1 131
r 0.620704 1 0 ack 40 ------- 0 1.0 0.0 1 126
- 0.623424 0 1 tcp 576 ------- 0 0.0 1.0 13401 129
r 0.624208 0 1 tcp 576 ------- 1 0.1 1.1 9649 123
+ 0.624208 1 0 ack 40 ------- 1 1.1 0.1 1 132
- 0.624208 1 0 ack 40 ------- 1 1.1 0.1 1 132
r 0.625312 1 0 ack 40 ------- 0 1.0 0.0 1 127
+ 0.625312 0 1 tcp 576 ------- 0 0.0 1.0 14473 133
+ 0.625312 0 1 tcp 576 ------- 0 0.0 1.0 15009 134
- 0.628032 0 1 tcp 576 ------- 0 0.0 1.0 13937 130
r 0.628816 0 1 tcp 576 ------- 1 0.1 1.1 10185 124
+ 0.628816 1 0 ack 40 ------- 1 1.1 0.1 1 135
- 0.628816 1 0 ack 40 ------- 1 1.1 0.1 1 135
r 0.62992 1 0 ack 40 ------- 1 1.1 0.1 1 131
+ 0.62992 0 1 tcp 576 ------- 1 0.1 1.1 10721 136
+ 0.62992 0 1 tcp 576 ------- 1 0.1 1.1 11257 137
- 0.63264 0 1 tcp 576 ------- 0 0.0 1.0 14473 133
r 0.633424 0 1 tcp 576 ------- 0 0.0 1.0 12865 128
+ 0.633424 1 0 ack 40 ------- 0 1.0 0.0 1 138
- 0.633424 1 0 ack 40 ------- 0 1.0 0.0 1 138
r 0.634528 1 0 ack 40 ------- 1 1.1 0.1 1 132
- 0.637248 0 1 tcp 576 ------- 0 0.0 1.0 15009 134
r 0.638032 0 1 tcp 576 ------- 0 0.0 1.0 13401 129
+ 0.638032 1 0 ack 40 ------- 0 1.0 0.0 1 139
- 0.638032 1 0 ack 40 ------- 0 1.0 0.0 1 139
r 0.639136 1 0 ack 40 ------- 1 1.1 0.1 1 135
+ 0.639136 0 1 tcp 576 ------- 1 0.1 1.1 11793 140
+ 0.639136 0 1 tcp 576 ------- 1 0.1 1.1 12329 141
- 0.641856 0 1 tcp 576 ------- 1 0.1 1.1 10721 136
r 0.64264 0 1 tcp 576 ------- 0 0.0 1.0 13937 130
+ 0.64264 1 0 ack 40 ------- 0 1.0 0.0 1 142
- 0.64264 1 0 ack 40 ------- 0 1.0 0.0 1 142
r 0.643744 1 0 ack 40 ------- 0 1.0 0.0 1 138
- 0.646464 0 1 tcp 576 ------- 1 0.1 1.1 11257 137
r 0.647248 0 1 tcp 576 ------- 0 0.0 1.0 14473 133
+ 0.647248 1 0 ack 40 ------- 0 1.0 0.0 1 143
- 0.647248 1 0 ack 40 ------- 0 1.0 0.0 1 143
r 0.648352 1 0 ack 40 ------- 0 1.0 0.0 1 139
+ 0.648352 0 1 tcp 576 ------- 0 0.0 1.0 15545 144
+ 0.648352 0 1 tcp 576 ------- 0 0.0 1.0 16081 145
- 0.651072 0 1 tcp 576 ------- 1 0.1 1.1 11793 140
r 0.651856 0 1 tcp 576 ------- 0 0.0 1.0 15009 134
+ 0.651856 1 0 ack 40 ------- 0 1.0 0.0 1 146
- 0.651856 1 0 ack 40 ------- 0 1.0 0.0 1 146
r 0.65296 1 0 ack 40 ------- 0 1.0 0.0 1 142
- 0.65568 0 1 tcp 576 ------- 1 0.1 1.1 12329 141
r 0.656464 0 1 tcp 576 ------- 1 0.1 1.1 10721 136
+ 0.656464 1 0 ack 40 ------- 1 1.1 0.1 1 147
- 0.656464 1 0 ack 40 ------- 1 1.1 0.1 1 147
r 0.657568 1 0 ack 40 ------- 0 1.0 0.0 1 143
+ 0.657568 0 1 tcp 576 ------- 0 0.0 1.0 16617 148
+ 0.657568 0 1 tcp 576 ---A--- 0 0.0 1.0 17153 149
- 0.660288 0 1 tcp 576 ------- 0 0.0 1.0 15545 144
r 0.661072 0 1 tcp 576 ------- 1 0.1 1.1 11257 137
+ 0.661072 1 0 ack 40 ------- 1 1.1 0.1 1 150
- 0.661072 1 0 ack 40 ------- 1 1.1 0.1 1 150
r 0.662176 1 0 ack 40 ------- 0 1.0 0.0 1 146
- 0.664896 0 1 tcp 576 ------- 0 0.0 1.0 16081 145
r 0.66568 0 1 tcp 576 ------- 1 0.1 1.1 11793 140
+ 0.66568 1 0 ack 40 ------- 1 1.1 0.1 1 151
- 0.66568 1 0 ack 40 ------- 1 1.1 0.1 1 151
r 0.666784 1 0 ack 40 ------- 1 1.1 0.1 1 147
- 0.669504 0 1 tcp 576 ------- 0 0.0 1.0 16617 148
r 0.670288 0 1 tcp 576 ------- 1 0.1 1.1 12329 141
+ 0.670288 1 0 ack 40 ------- 1 1.1 0.1 1 152
- 0.670288 1 0 ack 40 ------- 1 1.1 0.1 1 152
r 0.671392 1 0 ack 40 ------- 1 1.1 0.1 1 150
+ 0.671392 0 1 tcp 576 ---A--- 1 0.1 1.1 12865 153
+ 0.671392 0 1 tcp 576 ------- 1 0.1 1.1 13401 154
- 0.674112 0 1 tcp 576 ---A--- 0 0.0 1.0 17153 149
r 0.674896 0 1 tcp 576 ------- 0 0.0 1.0 15545 144
+ 0.674896 1 0 ack 40 ------- 0 1.0 0.0 1 155
- 0.674896 1 0 ack 40 ------- 0 1.0 0.0 1 155
r 0.676 1 0 ack 40 ------- 1 1.1 0.1 1 151
- 0.67872 0 1 tcp 576 ---A--- 1 0.1 1.1 12865 153
r 0.679504 0 1 tcp 576 ------- 0 0.0 1.0 16081 145
+ 0.679504 1 0 ack 40 ------- 0 1.0 0.0 1 156
- 0.679504 1 0 ack 40 ------- 0 1.0 0.0 1 156
r 0.680608 1 0 ack 40 ------- 1 1.1 0.1 1 152
+ 0.680608 0 1 tcp 576 ------- 1 0.1 1.1 13937 157
+ 0.680608 0 1 tcp 576 ------- 1 0.1 1.1 14473 158
- 0.683328 0 1 tcp 576 ------- 1 0.1 1.1 13401 154
r 0.684112 0 1 tcp 576 ------- 0 0.0 1.0 16617 148
+ 0.684112 1 0 ack 40 ------- 0 1.0 0.0 1 159
- 0.684112 1 0 ack 40 ------- 0 1.0 0.0 1 159
r 0.685216 1 0 ack 40 ------- 0 1.0 0.0 1 155
+ 0.685216 0 1 tcp 576 ------- 0 0.0 1.0 17689 160
+ 0.685216 0 1 tcp 576 ------- 0 0.0 1.0 18225 161
+ 0.685216 0 1 tcp 576 ------- 0 0.0 1.0 18761 162
- 0.687936 0 1 tcp 576 ------- 1 0.1 1.1 13937 157
r 0.68872 0 1 tcp 576 ---A--- 0 0.0 1.0 17153 149
+ 0.68872 1 0 ack 40 ------- 0 1.0 0.0 1 163
- 0.68872 1 0 ack 40 ------- 0 1.0 0.0 1 163
r 0.689824 1 0 ack 40 ------- 0 1.0 0.0 1 156
- 0.692544 0 1 tcp 576 ------- 1 0.1 1.1 14473 158
r 0.693328 0 1 tcp 576 ---A--- 1 0.1 1.1 12865 153
+ 0.693328 1 0 ack 40 ------- 1 1.1 0.1 1 164
- 0.693328 1 0 ack 40 ------- 1 1.1 0.1 1 164
r 0.694432 1 0 ack 40 ------- 0 1.0 0.0 1 159
- 0.697152 0 1 tcp 576 ------- 0 0.0 1.0 17689 160
r 0.697936 0 1 tcp 576 ------- 1 0.1 1.1 13401 154
+ 0.697936 1 0 ack 40 ------- 1 1.1 0.1 1 165
- 0.697936 1 0 ack 40 ------- 1 1.1 0.1 1 165
r 0.69904 1 0 ack 40 ------- 0 1.0 0.0 1 163
+ 0.69904 0 1 tcp 576 ------- 0 0.0 1.0 19297 166
+ 0.69904 0 1 tcp 576 ------- 0 0.0 1.0 19833 167
- 0.70176 0 1 tcp 576 ------- 0 0.0 1.0 18225 161
r 0.702544 0 1 tcp 576 ------- 1 0.1 1.1 13937 157
+ 0.702544 1 0 ack 40 ------- 1 1.1 0.1 1 168
- 0.702544 1 0 ack 40 ------- 1 1.1 0.1 1 168
r 0.703648 1 0 ack 40 ------- 1 1.1 0.1 1 164
+ 0.703648 0 1 tcp 576 ------- 1 0.1 1.1 15009 169
- 0.706368 0 1 tcp 576 ------- 0 0.0 1.0 18761 162
r 0.707152 0 1 tcp 576 ------- 1 0.1 1.1 14473 158
+ 0.707152 1 0 ack 40 ------- 1 1.1 0.1 1 170
- 0.707152 1 0 ack 40 ------- 1 1.1 0.1 1 170
r 0.708256 1 0 ack 40 ------- 1 1.1 0.1 1 165
+ 0.708256 0 1 tcp 576 ------- 1 0.1 1.1 15545 171
- 0.710976 0 1 tcp 576 ------- 0 0.0 1.0 19297 166
r 0.71176 0 1 tcp 576 ------- 0 0.0 1.0 17689 160
+ 0.71176 1 0 ack 40 ------- 0 1.0 0.0 1 172
- 0.71176 1 0 ack 40 ------- 0 1.0 0.0 1 172
r 0.712864 1 0 ack 40 ------- 1 1.1 0.1 1 168
+ 0.712864 0 1 tcp 576 ------- 1 0.1 1.1 16081 173
- 0.715584 0 1 tcp 576 ------- 0 0.0 1.0 19833 167
r 0.716368 0 1 tcp 576 ------- 0 0.0 1.0 18225 161
+ 0.716368 1 0 ack 40 ------- 0 1.0 0.0 1 174
- 0.716368 1 0 ack 40 ------- 0 1.0 0.0 1 174
r 0.717472 1 0 ack 40 ------- 1 1.1 0.1 1 170
+ 0.717472 0 1 tcp 576 ------- 1 0.1 1.1 16617 175
+ 0.717472 0 1 tcp 576 ------- 1 0.1 1.1 17153 176
- 0.720192 0 1 tcp 576 ------- 1 0.1 1.1 15009 169
r 0.720976 0 1 tcp 576 ------- 0 0.0 1.0 18761 162
+ 0.720976 1 0 ack 40 ------- 0 1.0 0.0 1 177
- 0.720976 1 0 ack 40 ------- 0 1.0 0.0 1 177
r 0.72208 1 0 ack 40 ------- 0 1.0 0.0 1 172
+ 0.72208 0 1 tcp 576 ------- 0 0.0 1.0 20369 178
- 0.7248 0 1 tcp 576 ------- 1 0.1 1.1 15545 171
r 0.725584 0 1 tcp 576 ------- 0 0.0 1.0 19297 166
+ 0.725584 1 0 ack 40 ------- 0 1.0 0.0 1 179
- 0.725584 1 0 ack 40 ------- 0 1.0 0.0 1 179
r 0.726688 1 0 ack 40 ------- 0 1.0 0.0 1 174
+ 0.726688 0 1 tcp 576 ------- 0 0.0 1.0 20905 180
- 0.729408 0 1 tcp 576 ------- 1 0.1 1.1 16081 173
r 0.730192 0 1 tcp 576 ------- 0 0.0 1.0 19833 167
+ 0.730192 1 0 ack 40 ------- 0 1.0 0.0 1 181
- 0.730192 1 0 ack 40 ------- 0 1.0 0.0 1 181
r 0.731296 1 0 ack 40 ------- 0 1.0 0.0 1 177
+ 0.731296 0 1 tcp 576 ------- 0 0.0 1.0 21441 182
- 0.734016 0 1 tcp 576 ------- 1 0.1 1.1 16617 175
r 0.7348 0 1 tcp 576 ------- 1 0.1 1.1 15009 169
+ 0.7348 1 0 ack 40 ------- 1 1.1 0.1 1 183
- 0.7348 1 0 ack 40 ------- 1 1.1 0.1 1 183
r 0.735904 1 0 ack 40 ------- 0 1.0 0.0 1 179
+ 0.735904 0 1 tcp 576 ------- 0 0.0 1.0 21977 184
- 0.738624 0 1 tcp 576 ------- 1 0.1 1.1 17153 176
r 0.739408 0 1 tcp 576 ------- 1 0.1 1.1 15545 171
+ 0.739408 1 0 ack 40 ------- 1 1.1 0.1 1 185
- 0.739408 1 0 ack 40 ------- 1 1.1 0.1 1 185
r 0.740512 1 0 ack 40 ------- 0 1.0 0.0 1 181
+ 0.740512 0 1 tcp 576 ------- 0 0.0 1.0 22513 186
+ 0.740512 0 1 tcp 576 ------- 0 0.0 1.0 23049 187
- 0.743232 0 1 tcp 576 ------- 0 0.0 1.0 20369 178
r 0.744016 0 1 tcp 576 ------- 1 0.1 1.1 16081 173
+ 0.744016 1 0 ack 40 ------- 1 1.1 0.1 1 188
- 0.744016 1 0 ack 40 ------- 1 1.1 0.1 1 188
r 0.74512 1 0 ack 40 ------- 1 1.1 0.1 1 183
+ 0.74512 0 1 tcp 576 ------- 1 0.1 1.1 17689 189
- 0.74784 0 1 tcp 576 ------- 0 0.0 1.0 20905 180
r 0.748624 0 1 tcp 576 ------- 1 0.1 1.1 16617 175
+ 0.748624 1 0 ack 40 ------- 1 1.1 0.1 1 190
- 0.748624 1 0 ack 40 ------- 1 1.1 0.1 1 190
r 0.749728 1 0 ack 40 ------- 1 1.1 0.1 1 185
+ 0.749728 0 1 tcp 576 ------- 1 0.1 1.1 18225 191
- 0.752448 0 1 tcp 576 ------- 0 0.0 1.0 21441 182
r 0.753232 0 1 tcp 576 ------- 1 0.1 1.1 17153 176
+ 0.753232 1 0 ack 40 ------- 1 1.1 0.1 1 192
- 0.753232 1 0 ack 40 ------- 1 1.1 0.1 1 192
r 0.754336 1 0 ack 40 ------- 1 1.1 0.1 1 188
+ 0.754336 0 1 tcp 576 ------- 1 0.1 1.1 18761 193
- 0.757056 0 1 tcp 576 ------- 0 0.0 1.0 21977 184
r 0.75784 0 1 tcp 576 ------- 0 0.0 1.0 20369 178
+ 0.75784 1 0 ack 40 ------- 0 1.0 0.0 1 194
- 0.75784 1 0 ack 40 ------- 0 1.0 0.0 1 194
r 0.758944 1 0 ack 40 ------- 1 1.1 0.1 1 190
+ 0.758944 0 1 tcp 576 ------- 1 0.1 1.1 19297 195
- 0.761664 0 1 tcp 576 ------- 0 0.0 1.0 22513 186
r 0.762448 0 1 tcp 576 ------- 0 0.0 1.0 20905 180
+ 0.762448 1 0 ack 40 ------- 0 1.0 0.0 1 196
- 0.762448 1 0 ack 40 ------- 0 1.0 0.0 1 196
r 0.763552 1 0 ack 40 ------- 1 1.1 0.1 1 192
+ 0.763552 0 1 tcp 576 ------- 1 0.1 1.1 19833 197
- 0.766272 0 1 tcp 576 ------- 0 0.0 1.0 23049 187
r 0.767056 0 1 tcp 576 ------- 0 0.0 1.0 21441 182
+ 0.767056 1 0 ack 40 ------- 0 1.0 0.0 1 198
- 0.767056 1 0 ack 40 ------- 0 1.0 0.0 1 198
r 0.76816 1 0 ack 40 ------- 0 1.0 0.0 1 194
+ 0.76816 0 1 tcp 576 ------- 0 0.0 1.0 23585 199
- 0.77088 0 1 tcp 576 ------- 1 0.1 1.1 17689 189
r 0.771664 0 1 tcp 576 ------- 0 0.0 1.0 21977 184
+ 0.771664 1 0 ack 40 ------- 0 1.0 0.0 1 200
- 0.771664 1 0 ack 40 ------- 0 1.0 0.0 1 200
r 0.772768 1 0 ack 40 ------- 0 1.0 0.0 1 196
+ 0.772768 0 1 tcp 576 ------- 0 0.0 1.0 24121 201
- 0.775488 0 1 tcp 576 ------- 1 0.1 1.1 18225 191
r 0.776272 0 1 tcp 576 ------- 0 0.0 1.0 22513 186
+ 0.776272 1 0 ack 40 ------- 0 1.0 0.0 1 202
- 0.776272 1 0 ack 40 ------- 0 1.0 0.0 1 202
r 0.777376 1 0 ack 40 ------- 0 1.0 0.0 1 198
+ 0.777376 0 1 tcp 576 ------- 0 0.0 1.0 24657 203
- 0.780096 0 1 tcp 576 ------- 1 0.1 1.1 18761 193
r 0.78088 0 1 tcp 576 ------- 0 0.0 1.0 23049 187
+ 0.78088 1 0 ack 40 ------- 0 1.0 0.0 1 204
- 0.78088 1 0 ack 40 ------- 0 1.0 0.0 1 204
r 0.781984 1 0 ack 40 ------- 0 1.0 0.0 1 200
+ 0.781984 0 1 tcp 576 ------- 0 0.0 1.0 25193 205
- 0.784704 0 1 tcp 576 ------- 1 0.1 1.1 19297 195
r 0.785488 0 1 tcp 576 ------- 1 0.1 1.1 17689 189
+ 0.785488 1 0 ack 40 ------- 1 1.1 0.1 1 206
- 0.785488 1 0 ack 40 ------- 1 1.1 0.1 1 206
r 0.786592 1 0 ack 40 ------- 0 1.0 0.0 1 202
+ 0.786592 0 1 tcp 576 ------- 0 0.0 1.0 25729 207
- 0.789312 0 1 tcp 576 ------- 1 0.1 1.1 19833 197
r 0.790096 0 1 tcp 576 ------- 1 0.1 1.1 18225 191
+ 0.790096 1 0 ack 40 ------- 1 1.1 0.1 1 208
- 0.790096 1 0 ack 40 ------- 1 1.1 0.1 1 208
r 0.7912 1 0 ack 40 ------- 0 1.0 0.0 1 204
+ 0.7912 0 1 tcp 576 ------- 0 0.0 1.0 26265 209
- 0.79392 0 1 tcp 576 ------- 0 0.0 1.0 23585 199
r 0.794704 0 1 tcp 576 ------- 1 0.1 1.1 18761 193
+ 0.794704 1 0 ack 40 ------- 1 1.1 0.1 1 210
- 0.794704 1 0 ack 40 ------- 1 1.1 0.1 1 210
r 0.795808 1 0 ack 40 ------- 1 1.1 0.1 1 206
+ 0.795808 0 1 tcp 576 ------- 1 0.1 1.1 20369 211
+ 0.795808 0 1 tcp 576 ------- 1 0.1 1.1 20905 212
- 0.798528 0 1 tcp 576 ------- 0 0.0 1.0 24121 201
r 0.799312 0 1 tcp 576 ------- 1 0.1 1.1 19297 195
+ 0.799312 1 0 ack 40 ------- 1 1.1 0.1 1 213
- 0.799312 1 0 ack 40 ------- 1 1.1 0.1 1 213
r 0.800416 1 0 ack 40 ------- 1 1.1 0.1 1 208
+ 0.800416 0 1 tcp 576 ------- 1 0.1 1.1 21441 214
- 0.803136 0 1 tcp 576 ------- 0 0.0 1.0 24657 203
r 0.80392 0 1 tcp 576 ------- 1 0.1 1.1 19833 197
+ 0.80392 1 0 ack 40 ------- 1 1.1 0.1 1 215
- 0.80392 1 0 ack 40 ------- 1 1.1 0.1 1 215
r 0.805024 1 0 ack 40 ------- 1 1.1 0.1 1 210
+ 0.805024 0 1 tcp 576 ------- 1 0.1 1.1 21977 216
- 0.807744 0 1 tcp 576 ------- 0 0.0 1.0 25193 205
r 0.808528 0 1 tcp 576 ------- 0 0.0 1.0 23585 199
+ 0.808528 1 0 ack 40 ------- 0 1.0 0.0 1 217
- 0.808528 1 0 ack 40 ------- 0 1.0 0.0 1 217
r 0.809632 1 0 ack 40 ------- 1 1.1 0.1 1 213
+ 0.809632 0 1 tcp 576 ------- 1 0.1 1.1 22513 218
- 0.812352 0 1 tcp 576 ------- 0 0.0 1.0 25729 207
r 0.813136 0 1 tcp 576 ------- 0 0.0 1.0 24121 201
+ 0.813136 1 0 ack 40 ------- 0 1.0 0.0 1 219
- 0.813136 1 0 ack 40 ------- 0 1.0 0.0 1 219
r 0.81424 1 0 ack 40 ------- 1 1.1 0.1 1 215
+ 0.81424 0 1 tcp 576 ------- 1 0.1 1.1 23049 220
- 0.81696 0 1 tcp 576 ------- 0 0.0 1.0 26265 209