V -t * -v 1.0a5 -a 0
A -t * -n 1 -p 0 -o 0x7fffffff -c 30 -a 1
A -t * -h 1 -m 1073741823 -s 0
c -t * -i 0 -n blue
c -t * -i 1 -n red
n -t * -a 0 -s 0 -S UP -v circle -c black -i black
n -t * -a 1 -s 1 -S UP -v circle -c black -i black
n -t * -a 2 -s 2 -S UP -v circle -c black -i black
l -t * -s 0 -d 1 -S UP -r 1000000 -D 0.01 -c black -o right
l -t * -s 2 -d 0 -S UP -r 1000000 -D 0.01 -c black -o right-down
q -t * -s 1 -d 0 -a 0.5
q -t * -s 0 -d 1 -a 0.5
+ -t 0.1 -s 0 -d 1 -p tcp -e 40 -c 0 -i 0 -a 0 -x {0.0 1.0 0 ------- null}
- -t 0.1 -s 0 -d 1 -p tcp -e 40 -c 0 -i 0 -a 0 -x {0.0 1.0 0 ------- null}
h -t 0.1 -s 0 -d 1 -p tcp -e 40 -c 0 -i 0 -a 0 -x {0.0 1.0 -1 ------- null}
+ -t 0.1 -s 0 -d 1 -p tcp -e 40 -c 1 -i 1 -a 1 -x {0.1 1.1 0 ------- null}
- -t 0.10032 -s 0 -d 1 -p tcp -e 40 -c 1 -i 1 -a 1 -x {0.1 1.1 0 ------- null}
h -t 0.10032 -s 0 -d 1 -p tcp -e 40 -c 1 -i 1 -a 1 -x {0.1 1.1 -1 ------- null}
r -t 0.11032 -s 0 -d 1 -p tcp -e 40 -c 0 -i 0 -a 0 -x {0.0 1.0 0 ------- null}
+ -t 0.11032 -s 1 -d 0 -p ack -e 40 -c 0 -i 2 -a 0 -x {1.0 0.0 0 ------- null}
- -t 0.11032 -s 1 -d 0 -p ack -e 40 -c 0 -i 2 -a 0 -x {1.0 0.0 0 ------- null}
h -t 0.11032 -s 1 -d 0 -p ack -e 40 -c 0 -i 2 -a 0 -x {1.0 0.0 -1 ------- null}
r -t 0.11064 -s 0 -d 1 -p tcp -e 40 -c 1 -i 1 -a 1 -x {0.1 1.1 0 ------- null}
+ -t 0.11064 -s 1 -d 0 -p ack -e 40 -c 1 -i 3 -a 1 -x {1.1 0.1 0 ------- null}
- -t 0.11064 -s 1 -d 0 -p ack -e 40 -c 1 -i 3 -a 1 -x {1.1 0.1 0 ------- null}
h -t 0.11064 -s 1 -d 0 -p ack -e 40 -c 1 -i 3 -a 1 -x {1.1 0.1 -1 ------- null}
r -t 0.12064 -s 1 -d 0 -p ack -e 40 -c 0 -i 2 -a 0 -x {1.0 0.0 0 ------- null}
+ -t 0.12064 -s 0 -d 1 -p tcp -e 40 -c 0 -i 4 -a 0 -x {0.0 1.0 1 ------- null}
- -t 0.12064 -s 0 -d 1 -p tcp -e 40 -c 0 -i 4 -a 0 -x {0.0 1.0 1 ------- null}
h -t 0.12064 -s 0 -d 1 -p tcp -e 40 -c 0 -i 4 -a 0 -x {0.0 1.0 -1 ------- null}
+ -t 0.12064 -s 0 -d 1 -p tcp -e 576 -c 0 -i 5 -a 0 -x {0.0 1.0 1 ------- null}
+ -t 0.12064 -s 0 -d 1 -p tcp -e 576 -c 0 -i 6 -a 0 -x {0.0 1.0 537 ------- null}
r -t 0.12096 -s 1 -d 0 -p ack -e 40 -c 1 -i 3 -a 1 -x {1.1 0.1 0 ------- null}
+ -t 0.12096 -s 0 -d 1 -p tcp -e 40 -c 1 -i 7 -a 1 -x {0.1 1.1 1 ------- null}
+ -t 0.12096 -s 0 -d 1 -p tcp -e 576 -c 1 -i 8 -a 1 -x {0.1 1.1 1 ------- null}
+ -t 0.12096 -s 0 -d 1 -p tcp -e 576 -c 1 -i 9 -a 1 -x {0.1 1.1 537 ------- null}
- -t 0.12096 -s 0 -d 1 -p tcp -e 576 -c 0 -i 5 -a 0 -x {0.0 1.0 1 ------- null}
h -t 0.12096 -s 0 -d 1 -p tcp -e 576 -c 0 -i 5 -a 0 -x {0.0 1.0 -1 ------- null}
- -t 0.125568 -s 0 -d 1 -p tcp -e 576 -c 0 -i 6 -a 0 -x {0.0 1.0 537 ------- null}
h -t 0.125568 -s 0 -d 1 -p tcp -e 576 -c 0 -i 6 -a 0 -x {0.0 1.0 -1 ------- null}
- -t 0.130176 -s 0 -d 1 -p tcp -e 40 -c 1 -i 7 -a 1 -x {0.1 1.1 1 ------- null}
h -t 0.130176 -s 0 -d 1 -p tcp -e 40 -c 1 -i 7 -a 1 -x {0.1 1.1 -1 ------- null}
- -t 0.130496 -s 0 -d 1 -p tcp -e 576 -c 1 -i 8 -a 1 -x {0.1 1.1 1 ------- null}
h -t 0.130496 -s 0 -d 1 -p tcp -e 576 -c 1 -i 8 -a 1 -x {0.1 1.1 -1 ------- null}
r -t 0.13096 -s 0 -d 1 -p tcp -e 40 -c 0 -i 4 -a 0 -x {0.0 1.0 1 ------- null}
- -t 0.135104 -s 0 -d 1 -p tcp -e 576 -c 1 -i 9 -a 1 -x {0.1 1.1 537 ------- null}
h -t 0.135104 -s 0 -d 1 -p tcp -e 576 -c 1 -i 9 -a 1 -x {0.1 1.1 -1 ------- null}
r -t 0.135568 -s 0 -d 1 -p tcp -e 576 -c 0 -i 5 -a 0 -x {0.0 1.0 1 ------- null}
+ -t 0.135568 -s 1 -d 0 -p ack -e 40 -c 0 -i 10 -a 0 -x {1.0 0.0 1 ------- null}
- -t 0.135568 -s 1 -d 0 -p ack -e 40 -c 0 -i 10 -a 0 -x {1.0 0.0 1 ------- null}
h -t 0.135568 -s 1 -d 0 -p ack -e 40 -c 0 -i 10 -a 0 -x {1.0 0.0 -1 ------- null}
r -t 0.140176 -s 0 -d 1 -p tcp -e 576 -c 0 -i 6 -a 0 -x {0.0 1.0 537 ------- null}
+ -t 0.140176 -s 1 -d 0 -p ack -e 40 -c 0 -i 11 -a 0 -x {1.0 0.0 1 ------- null}
- -t 0.140176 -s 1 -d 0 -p ack -e 40 -c 0 -i 11 -a 0 -x {1.0 0.0 1 ------- null}
h -t 0.140176 -s 1 -d 0 -p ack -e 40 -c 0 -i 11 -a 0 -x {1.0 0.0 -1 ------- null}
r -t 0.140496 -s 0 -d 1 -p tcp -e 40 -c 1 -i 7 -a 1 -x {0.1 1.1 1 ------- null}
r -t 0.145104 -s 0 -d 1 -p tcp -e 576 -c 1 -i 8 -a 1 -x {0.1 1.1 1 ------- null}
+ -t 0.145104 -s 1 -d 0 -p ack -e 40 -c 1 -i 12 -a 1 -x {1.1 0.1 1 ------- null}
- -t 0.145104 -s 1 -d 0 -p ack -e 40 -c 1 -i 12 -a 1 -x {1.1 0.1 1 ------- null}
h -t 0.145104 -s 1 -d 0 -p ack -e 40 -c 1 -i 12 -a 1 -x {1.1 0.1 -1 ------- null}
r -t 0.145888 -s 1 -d 0 -p ack -e 40 -c 0 -i 10 -a 0 -x {1.0 0.0 1 ------- null}
+ -t 0.145888 -s 0 -d 1 -p tcp -e 576 -c 0 -i 13 -a 0 -x {0.0 1.0 1073 ------- null}
- -t 0.145888 -s 0 -d 1 -p tcp -e 576 -c 0 -i 13 -a 0 -x {0.0 1.0 1073 ------- null}
h -t 0.145888 -s 0 -d 1 -p tcp -e 576 -c 0 -i 13 -a 0 -x {0.0 1.0 -1 ------- null}
+ -t 0.145888 -s 0 -d 1 -p tcp -e 576 -c 0 -i 14 -a 0 -x {0.0 1.0 1609 ------- null}
r -t 0.149712 -s 0 -d 1 -p tcp -e 576 -c 1 -i 9 -a 1 -x {0.1 1.1 537 ------- null}
+ -t 0.149712 -s 1 -d 0 -p ack -e 40 -c 1 -i 15 -a 1 -x {1.1 0.1 1 ------- null}
- -t 0.149712 -s 1 -d 0 -p ack -e 40 -c 1 -i 15 -a 1 -x {1.1 0.1 1 ------- null}
h -t 0.149712 -s 1 -d 0 -p ack -e 40 -c 1 -i 15 -a 1 -x {1.1 0.1 -1 ------- null}
r -t 0.150496 -s 1 -d 0 -p ack -e 40 -c 0 -i 11 -a 0 -x {1.0 0.0 1 ------- null}
+ -t 0.150496 -s 0 -d 1 -p tcp -e 576 -c 0 -i 16 -a 0 -x {0.0 1.0 2145 ------- null}
+ -t 0.150496 -s 0 -d 1 -p tcp -e 576 -c 0 -i 17 -a 0 -x {0.0 1.0 2681 ------- null}
- -t 0.150496 -s 0 -d 1 -p tcp -e 576 -c 0 -i 14 -a 0 -x {0.0 1.0 1609 ------- null}
h -t 0.150496 -s 0 -d 1 -p tcp -e 576 -c 0 -i 14 -a 0 -x {0.0 1.0 -1 ------- null}
- -t 0.155104 -s 0 -d 1 -p tcp -e 576 -c 0 -i 16 -a 0 -x {0.0 1.0 2145 ------- null}
h -t 0.155104 -s 0 -d 1 -p tcp -e 576 -c 0 -i 16 -a 0 -x {0.0 1.0 -1 ------- null}
r -t 0.155424 -s 1 -d 0 -p ack -e 40 -c 1 -i 12 -a 1 -x {1.1 0.1 1 ------- null}
+ -t 0.155424 -s 0 -d 1 -p tcp -e 576 -c 1 -i 18 -a 1 -x {0.1 1.1 1073 ------- null}
+ -t 0.155424 -s 0 -d 1 -p tcp -e 576 -c 1 -i 19 -a 1 -x {0.1 1.1 1609 ------- null}
- -t 0.159712 -s 0 -d 1 -p tcp -e 576 -c 0 -i 17 -a 0 -x {0.0 1.0 2681 ------- null}
h -t 0.159712 -s 0 -d 1 -p tcp -e 576 -c 0 -i 17 -a 0 -x {0.0 1.0 -1 ------- null}
r -t 0.160032 -s 1 -d 0 -p ack -e 40 -c 1 -i 15 -a 1 -x {1.1 0.1 1 ------- null}
+ -t 0.160032 -s 0 -d 1 -p tcp -e 576 -c 1 -i 20 -a 1 -x {0.1 1.1 2145 ------- null}
+ -t 0.160032 -s 0 -d 1 -p tcp -e 576 -c 1 -i 21 -a 1 -x {0.1 1.1 2681 ------- null}
r -t 0.160496 -s 0 -d 1 -p tcp -e 576 -c 0 -i 13 -a 0 -x {0.0 1.0 1073 ------- null}
+ -t 0.160496 -s 1 -d 0 -p ack -e 40 -c 0 -i 22 -a 0 -x {1.0 0.0 1 ------- null}
- -t 0.160496 -s 1 -d 0 -p ack -e 40 -c 0 -i 22 -a 0 -x {1.0 0.0 1 ------- null}
h -t 0.160496 -s 1 -d 0 -p ack -e 40 -c 0 -i 22 -a 0 -x {1.0 0.0 -1 ------- null}
- -t 0.16432 -s 0 -d 1 -p tcp -e 576 -c 1 -i 18 -a 1 -x {0.1 1.1 1073 ------- null}
h -t 0.16432 -s 0 -d 1 -p tcp -e 576 -c 1 -i 18 -a 1 -x {0.1 1.1 -1 ------- null}
r -t 0.165104 -s 0 -d 1 -p tcp -e 576 -c 0 -i 14 -a 0 -x {0.0 1.0 1609 ------- null}
+ -t 0.165104 -s 1 -d 0 -p ack -e 40 -c 0 -i 23 -a 0 -x {1.0 0.0 1 ------- null}
- -t 0.165104 -s 1 -d 0 -p ack -e 40 -c 0 -i 23 -a 0 -x {1.0 0.0 1 ------- null}
h -t 0.165104 -s 1 -d 0 -p ack -e 40 -c 0 -i 23 -a 0 -x {1.0 0.0 -1 ------- null}
- -t 0.168928 -s 0 -d 1 -p tcp -e 576 -c 1 -i 19 -a 1 -x {0.1 1.1 1609 ------- null}
h -t 0.168928 -s 0 -d 1 -p tcp -e 576 -c 1 -i 19 -a 1 -x {0.1 1.1 -1 ------- null}
r -t 0.169712 -s 0 -d 1 -p tcp -e 576 -c 0 -i 16 -a 0 -x {0.0 1.0 2145 ------- null}
+ -t 0.169712 -s 1 -d 0 -p ack -e 40 -c 0 -i 24 -a 0 -x {1.0 0.0 1 ------- null}
- -t 0.169712 -s 1 -d 0 -p ack -e 40 -c 0 -i 24 -a 0 -x {1.0 0.0 1 ------- null}
h -t 0.169712 -s 1 -d 0 -p ack -e 40 -c 0 -i 24 -a 0 -x {1.0 0.0 -1 ------- null}
r -t 0.170816 -s 1 -d 0 -p ack -e 40 -c 0 -i 22 -a 0 -x {1.0 0.0 1 ------- null}
+ -t 0.170816 -s 0 -d 1 -p tcp -e 576 -c 0 -i 25 -a 0 -x {0.0 1.0 3217 ------- null}
+ -t 0.170816 -s 0 -d 1 -p tcp -e 576 -c 0 -i 26 -a 0 -x {0.0 1.0 3753 ------- null}
- -t 0.173536 -s 0 -d 1 -p tcp -e 576 -c 1 -i 20 -a 1 -x {0.1 1.1 2145 ------- null}
h -t 0.173536 -s 0 -d 1 -p tcp -e 576 -c 1 -i 20 -a 1 -x {0.1 1.1 -1 ------- null}
r -t 0.17432 -s 0 -d 1 -p tcp -e 576 -c 0 -i 17 -a 0 -x {0.0 1.0 2681 ------- null}
+ -t 0.17432 -s 1 -d 0 -p ack -e 40 -c 0 -i 27 -a 0 -x {1.0 0.0 1 ------- null}
- -t 0.17432 -s 1 -d 0 -p ack -e 40 -c 0 -i 27 -a 0 -x {1.0 0.0 1 ------- null}
h -t 0.17432 -s 1 -d 0 -p ack -e 40 -c 0 -i 27 -a 0 -x {1.0 0.0 -1 ------- null}
r -t 0.175424 -s 1 -d 0 -p ack -e 40 -c 0 -i 23 -a 0 -x {1.0 0.0 1 ------- null}
+ -t 0.175424 -s 0 -d 1 -p tcp -e 576 -c 0 -i 28 -a 0 -x {0.0 1.0 4289 ------- null}
+ -t 0.175424 -s 0 -d 1 -p tcp -e 576 -c 0 -i 29 -a 0 -x {0.0 1.0 4825 ------- null}
- -t 0.178144 -s 0 -d 1 -p tcp -e 576 -c 1 -i 21 -a 1 -x {0.1 1.1 2681 ------- null}
h -t 0.178144 -s 0 -d 1 -p tcp -e 576 -c 1 -i 21 -a 1 -x {0.1 1.1 -1 ------- null}
r -t 0.178928 -s 0 -d 1 -p tcp -e 576 -c 1 -i 18 -a 1 -x {0.1 1.1 1073 ------- null}
+ -t 0.178928 -s 1 -d 0 -p ack -e 40 -c 1 -i 30 -a 1 -x {1.1 0.1 1 ------- null}
- -t 0.178928 -s 1 -d 0 -p ack -e 40 -c 1 -i 30 -a 1 -x {1.1 0.1 1 ------- null}
h -t 0.178928 -s 1 -d 0 -p ack -e 40 -c 1 -i 30 -a 1 -x {1.1 0.1 -1 ------- null}
r -t 0.180032 -s 1 -d 0 -p ack -e 40 -c 0 -i 24 -a 0 -x {1.0 0.0 1 ------- null}
+ -t 0.180032 -s 0 -d 1 -p tcp -e 576 -c 0 -i 31 -a 0 -x {0.0 1.0 5361 ------- null}
+ -t 0.180032 -s 0 -d 1 -p tcp -e 576 -c 0 -i 32 -a 0 -x {0.0 1.0 5897 ------- null}
- -t 0.182752 -s 0 -d 1 -p tcp -e 576 -c 0 -i 25 -a 0 -x {0.0 1.0 3217 ------- null}
h -t 0.182752 -s 0 -d 1 -p tcp -e 576 -c 0 -i 25 -a 0 -x {0.0 1.0 -1 ------- null}
r -t 0.183536 -s 0 -d 1 -p tcp -e 576 -c 1 -i 19 -a 1 -x {0.1 1.1 1609 ------- null}
+ -t 0.183536 -s 1 -d 0 -p ack -e 40 -c 1 -i 33 -a 1 -x {1.1 0.1 1 ------- null}
- -t 0.183536 -s 1 -d 0 -p ack -e 40 -c 1 -i 33 -a 1 -x {1.1 0.1 1 ------- null}
h -t 0.183536 -s 1 -d 0 -p ack -e 40 -c 1 -i 33 -a 1 -x {1.1 0.1 -1 ------- null}
r -t 0.18464 -s 1 -d 0 -p ack -e 40 -c 0 -i 27 -a 0 -x {1.0 0.0 1 ------- null}
+ -t 0.18464 -s 0 -d 1 -p tcp -e 576 -c 0 -i 34 -a 0 -x {0.0 1.0 6433 ------- null}
+ -t 0.18464 -s 0 -d 1 -p tcp -e 576 -c 0 -i 35 -a 0 -x {0.0 1.0 6969 ------- null}
- -t 0.18736 -s 0 -d 1 -p tcp -e 576 -c 0 -i 26 -a 0 -x {0.0 1.0 3753 ------- null}
h -t 0.18736 -s 0 -d 1 -p tcp -e 576 -c 0 -i 26 -a 0 -x {0.0 1.0 -1 ------- null}
r -t 0.188144 -s 0 -d 1 -p tcp -e 576 -c 1 -i 20 -a 1 -x {0.1 1.1 2145 ------- null}
+ -t 0.188144 -s 1 -d 0 -p ack -e 40 -c 1 -i 36 -a 1 -x {1.1 0.1 1 ------- null}
- -t 0.188144 -s 1 -d 0 -p ack -e 40 -c 1 -i 36 -a 1 -x {1.1 0.1 1 ------- null}
h -t 0.188144 -s 1 -d 0 -p ack -e 40 -c 1 -i 36 -a 1 -x {1.1 0.1 -1 ------- null}
r -t 0.189248 -s 1 -d 0 -p ack -e 40 -c 1 -i 30 -a 1 -x {1.1 0.1 1 ------- null}
+ -t 0.189248 -s 0 -d 1 -p tcp -e 576 -c 1 -i 37 -a 1 -x {0.1 1.1 3217 ------- null}
+ -t 0.189248 -s 0 -d 1 -p tcp -e 576 -c 1 -i 38 -a 1 -x {0.1 1.1 3753 ------- null}
- -t 0.191968 -s 0 -d 1 -p tcp -e 576 -c 0 -i 28 -a 0 -x {0.0 1.0 4289 ------- null}
h -t 0.191968 -s 0 -d 1 -p tcp -e 576 -c 0 -i 28 -a 0 -x {0.0 1.0 -1 ------- null}
r -t 0.192752 -s 0 -d 1 -p tcp -e 576 -c 1 -i 21 -a 1 -x {0.1 1.1 2681 ------- null}
+ -t 0.192752 -s 1 -d 0 -p ack -e 40 -c 1 -i 39 -a 1 -x {1.1 0.1 1 ------- null}
- -t 0.192752 -s 1 -d 0 -p ack -e 40 -c 1 -i 39 -a 1 -x {1.1 0.1 1 ------- null}
h -t 0.192752 -s 1 -d 0 -p ack -e 40 -c 1 -i 39 -a 1 -x {1.1 0.1 -1 ------- null}
r -t 0.193856 -s 1 -d 0 -p ack -e 40 -c 1 -i 33 -a 1 -x {1.1 0.1 1 ------- null}
+ -t 0.193856 -s 0 -d 1 -p tcp -e 576 -c 1 -i 40 -a 1 -x {0.1 1.1 4289 ------- null}
+ -t 0.193856 -s 0 -d 1 -p tcp -e 576 -c 1 -i 41 -a 1 -x {0.1 1.1 4825 ------- null}
- -t 0.196576 -s 0 -d 1 -p tcp -e 576 -c 0 -i 29 -a 0 -x {0.0 1.0 4825 ------- null}
h -t 0.196576 -s 0 -d 1 -p tcp -e 576 -c 0 -i 29 -a 0 -x {0.0 1.0 -1 ------- null}
r -t 0.19736 -s 0 -d 1 -p tcp -e 576 -c 0 -i 25 -a 0 -x {0.0 1.0 3217 ------- null}
+ -t 0.19736 -s 1 -d 0 -p ack -e 40 -c 0 -i 42 -a 0 -x {1.0 0.0 1 ------- null}
- -t 0.19736 -s 1 -d 0 -p ack -e 40 -c 0 -i 42 -a 0 -x {1.0 0.0 1 ------- null}
h -t 0.19736 -s 1 -d 0 -p ack -e 40 -c 0 -i 42 -a 0 -x {1.0 0.0 -1 ------- null}
r -t 0.198464 -s 1 -d 0 -p ack -e 40 -c 1 -i 36 -a 1 -x {1.1 0.1 1 ------- null}
+ -t 0.198464 -s 0 -d 1 -p tcp -e 576 -c 1 -i 43 -a 1 -x {0.1 1.1 5361 ------- null}
+ -t 0.198464 -s 0 -d 1 -p tcp -e 576 -c 1 -i 44 -a 1 -x {0.1 1.1 5897 ------- null}
d -t 0.198464 -s 0 -d 1 -p tcp -e 576 -c 1 -i 44 -a 1 -x {0.1 1.1 5897 ------- null}
- -t 0.201184 -s 0 -d 1 -p tcp -e 576 -c 0 -i 31 -a 0 -x {0.0 1.0 5361 ------- null}
h -t 0.201184 -s 0 -d 1 -p tcp -e 576 -c 0 -i 31 -a 0 -x {0.0 1.0 -1 ------- null}
r -t 0.201968 -s 0 -d 1 -p tcp -e 576 -c 0 -i 26 -a 0 -x {0.0 1.0 3753 ------- null}
+ -t 0.201968 -s 1 -d 0 -p ack -e 40 -c 0 -i 45 -a 0 -x {1.0 0.0 1 ------- null}
- -t 0.201968 -s 1 -d 0 -p ack -e 40 -c 0 -i 45 -a 0 -x {1.0 0.0 1 ------- null}
h -t 0.201968 -s 1 -d 0 -p ack -e 40 -c 0 -i 45 -a 0 -x {1.0 0.0 -1 ------- null}
r -t 0.203072 -s 1 -d 0 -p ack -e 40 -c 1 -i 39 -a 1 -x {1.1 0.1 1 ------- null}
+ -t 0.203072 -s 0 -d 1 -p tcp -e 576 -c 1 -i 46 -a 1 -x {0.1 1.1 6433 ------- null}
+ -t 0.203072 -s 0 -d 1 -p tcp -e 576 -c 1 -i 47 -a 1 -x {0.1 1.1 6969 ------- null}
d -t 0.203072 -s 0 -d 1 -p tcp -e 576 -c 1 -i 47 -a 1 -x {0.1 1.1 6969 ------- null}
- -t 0.205792 -s 0 -d 1 -p tcp -e 576 -c 0 -i 32 -a 0 -x {0.0 1.0 5897 ------- null}
h -t 0.205792 -s 0 -d 1 -p tcp -e 576 -c 0 -i 32 -a 0 -x {0.0 1.0 -1 ------- null}
r -t 0.206576 -s 0 -d 1 -p tcp -e 576 -c 0 -i 28 -a 0 -x {0.0 1.0 4289 ------- null}
+ -t 0.206576 -s 1 -d 0 -p ack -e 40 -c 0 -i 48 -a 0 -x {1.0 0.0 1 ------- null}
- -t 0.206576 -s 1 -d 0 -p ack -e 40 -c 0 -i 48 -a 0 -x {1.0 0.0 1 ------- null}
h -t 0.206576 -s 1 -d 0 -p ack -e 40 -c 0 -i 48 -a 0 -x {1.0 0.0 -1 ------- null}
r -t 0.20768 -s 1 -d 0 -p ack -e 40 -c 0 -i 42 -a 0 -x {1.0 0.0 1 ------- null}
+ -t 0.20768 -s 0 -d 1 -p tcp -e 576 -c 0 -i 49 -a 0 -x {0.0 1.0 7505 ------- null}
+ -t 0.20768 -s 0 -d 1 -p tcp -e 576 -c 0 -i 50 -a 0 -x {0.0 1.0 8041 ------- null}
d -t 0.20768 -s 0 -d 1 -p tcp -e 576 -c 0 -i 50 -a 0 -x {0.0 1.0 8041 ------- null}
- -t 0.2104 -s 0 -d 1 -p tcp -e 576 -c 0 -i 34 -a 0 -x {0.0 1.0 6433 ------- null}
h -t 0.2104 -s 0 -d 1 -p tcp -e 576 -c 0 -i 34 -a 0 -x {0.0 1.0 -1 ------- null}
r -t 0.211184 -s 0 -d 1 -p tcp -e 576 -c 0 -i 29 -a 0 -x {0.0 1.0 4825 ------- null}
+ -t 0.211184 -s 1 -d 0 -p ack -e 40 -c 0 -i 51 -a 0 -x {1.0 0.0 1 ------- null}
- -t 0.211184 -s 1 -d 0 -p ack -e 40 -c 0 -i 51 -a 0 -x {1.0 0.0 1 ------- null}
h -t 0.211184 -s 1 -d 0 -p ack -e 40 -c 0 -i 51 -a 0 -x {1.0 0.0 -1 ------- null}
r -t 0.212288 -s 1 -d 0 -p ack -e 40 -c 0 -i 45 -a 0 -x {1.0 0.0 1 ------- null}
+ -t 0.212288 -s 0 -d 1 -p tcp -e 576 -c 0 -i 52 -a 0 -x {0.0 1.0 8577 ------- null}
+ -t 0.212288 -s 0 -d 1 -p tcp -e 576 -c 0 -i 53 -a 0 -x {0.0 1.0 9113 ------- null}
d -t 0.212288 -s 0 -d 1 -p tcp -e 576 -c 0 -i 53 -a 0 -x {0.0 1.0 9113 ------- null}
- -t 0.215008 -s 0 -d 1 -p tcp -e 576 -c 0 -i 35 -a 0 -x {0.0 1.0 6969 ------- null}
h -t 0.215008 -s 0 -d 1 -p tcp -e 576 -c 0 -i 35 -a 0 -x {0.0 1.0 -1 ------- null}
r -t 0.215792 -s 0 -d 1 -p tcp -e 576 -c 0 -i 31 -a 0 -x {0.0 1.0 5361 ------- null}
+ -t 0.215792 -s 1 -d 0 -p ack -e 40 -c 0 -i 54 -a 0 -x {1.0 0.0 1 ------- null}
- -t 0.215792 -s 1 -d 0 -p ack -e 40 -c 0 -i 54 -a 0 -x {1.0 0.0 1 ------- null}
h -t 0.215792 -s 1 -d 0 -p ack -e 40 -c 0 -i 54 -a 0 -x {1.0 0.0 -1 ------- null}
r -t 0.216896 -s 1 -d 0 -p ack -e 40 -c 0 -i 48 -a 0 -x {1.0 0.0 1 ------- null}
+ -t 0.216896 -s 0 -d 1 -p tcp -e 576 -c 0 -i 55 -a 0 -x {0.0 1.0 9649 ------- null}
+ -t 0.216896 -s 0 -d 1 -p tcp -e 576 -c 0 -i 56 -a 0 -x {0.0 1.0 10185 ------- null}
d -t 0.216896 -s 0 -d 1 -p tcp -e 576 -c 0 -i 56 -a 0 -x {0.0 1.0 10185 ------- null}
- -t 0.219616 -s 0 -d 1 -p tcp -e 576 -c 1 -i 37 -a 1 -x {0.1 1.1 3217 ------- null}
h -t 0.219616 -s 0 -d 1 -p tcp -e 576 -c 1 -i 37 -a 1 -x {0.1 1.1 -1 ------- null}
r -t 0.2204 -s 0 -d 1 -p tcp -e 576 -c 0 -i 32 -a 0 -x {0.0 1.0 5897 ------- null}
+ -t 0.2204 -s 1 -d 0 -p ack -e 40 -c 0 -i 57 -a 0 -x {1.0 0.0 1 ------- null}
- -t 0.2204 -s 1 -d 0 -p ack -e 40 -c 0 -i 57 -a 0 -x {1.0 0.0 1 ------- null}
h -t 0.2204 -s 1 -d 0 -p ack -e 40 -c 0 -i 57 -a 0 -x {1.0 0.0 -1 ------- null}
r -t 0.221504 -s 1 -d 0 -p ack -e 40 -c 0 -i 51 -a 0 -x {1.0 0.0 1 ------- null}
+ -t 0.221504 -s 0 -d 1 -p tcp -e 576 -c 0 -i 58 -a 0 -x {0.0 1.0 10721 ------- null}
+ -t 0.221504 -s 0 -d 1 -p tcp -e 576 -c 0 -i 59 -a 0 -x {0.0 1.0 11257 ------- null}
d -t 0.221504 -s 0 -d 1 -p tcp -e 576 -c 0 -i 59 -a 0 -x {0.0 1.0 11257 ------- null}
- -t 0.224224 -s 0 -d 1 -p tcp -e 576 -c 1 -i 38 -a 1 -x {0.1 1.1 3753 ------- null}
h -t 0.224224 -s 0 -d 1 -p tcp -e 576 -c 1 -i 38 -a 1 -x {0.1 1.1 -1 ------- null}
r -t 0.225008 -s 0 -d 1 -p tcp -e 576 -c 0 -i 34 -a 0 -x {0.0 1.0 6433 ------- null}
+ -t 0.225008 -s 1 -d 0 -p ack -e 40 -c 0 -i 60 -a 0 -x {1.0 0.0 1 ------- null}
- -t 0.225008 -s 1 -d 0 -p ack -e 40 -c 0 -i 60 -a 0 -x {1.0 0.0 1 ------- null}
h -t 0.225008 -s 1 -d 0 -p ack -e 40 -c 0 -i 60 -a 0 -x {1.0 0.0 -1 ------- null}
r -t 0.226112 -s 1 -d 0 -p ack -e 40 -c 0 -i 54 -a 0 -x {1.0 0.0 1 ------- null}
+ -t 0.226112 -s 0 -d 1 -p tcp -e 576 -c 0 -i 61 -a 0 -x {0.0 1.0 11793 ------- null}
+ -t 0.226112 -s 0 -d 1 -p tcp -e 576 -c 0 -i 62 -a 0 -x {0.0 1.0 12329 ------- null}
d -t 0.226112 -s 0 -d 1 -p tcp -e 576 -c 0 -i 62 -a 0 -x {0.0 1.0 12329 ------- null}
- -t 0.228832 -s 0 -d 1 -p tcp -e 576 -c 1 -i 40 -a 1 -x {0.1 1.1 4289 ------- null}
h -t 0.228832 -s 0 -d 1 -p tcp -e 576 -c 1 -i 40 -a 1 -x {0.1 1.1 -1 ------- null}
r -t 0.229616 -s 0 -d 1 -p tcp -e 576 -c 0 -i 35 -a 0 -x {0.0 1.0 6969 ------- null}
+ -t 0.229616 -s 1 -d 0 -p ack -e 40 -c 0 -i 63 -a 0 -x {1.0 0.0 1 ------- null}
- -t 0.229616 -s 1 -d 0 -p ack -e 40 -c 0 -i 63 -a 0 -x {1.0 0.0 1 ------- null}
h -t 0.229616 -s 1 -d 0 -p ack -e 40 -c 0 -i 63 -a 0 -x {1.0 0.0 -1 ------- null}
r -t 0.23072 -s 1 -d 0 -p ack -e 40 -c 0 -i 57 -a 0 -x {1.0 0.0 1 ------- null}
+ -t 0.23072 -s 0 -d 1 -p tcp -e 576 -c 0 -i 64 -a 0 -x {0.0 1.0 12865 ------- null}
+ -t 0.23072 -s 0 -d 1 -p tcp -e 576 -c 0 -i 65 -a 0 -x {0.0 1.0 13401 ------- null}
d -t 0.23072 -s 0 -d 1 -p tcp -e 576 -c 0 -i 65 -a 0 -x {0.0 1.0 13401 ------- null}
- -t 0.23344 -s 0 -d 1 -p tcp -e 576 -c 1 -i 41 -a 1 -x {0.1 1.1 4825 ------- null}
h -t 0.23344 -s 0 -d 1 -p tcp -e 576 -c 1 -i 41 -a 1 -x {0.1 1.1 -1 ------- null}
r -t 0.234224 -s 0 -d 1 -p tcp -e 576 -c 1 -i 37 -a 1 -x {0.1 1.1 3217 ------- null}
+ -t 0.234224 -s 1 -d 0 -p ack -e 40 -c 1 -i 66 -a 1 -x {1.1 0.1 1 ------- null}
- -t 0.234224 -s 1 -d 0 -p ack -e 40 -c 1 -i 66 -a 1 -x {1.1 0.1 1 ------- null}
h -t 0.234224 -s 1 -d 0 -p ack -e 40 -c 1 -i 66 -a 1 -x {1.1 0.1 -1 ------- null}
r -t 0.235328 -s 1 -d 0 -p ack -e 40 -c 0 -i 60 -a 0 -x {1.0 0.0 1 ------- null}
+ -t 0.235328 -s 0 -d 1 -p tcp -e 576 -c 0 -i 67 -a 0 -x {0.0 1.0 13937 ------- null}
+ -t 0.235328 -s 0 -d 1 -p tcp -e 576 -c 0 -i 68 -a 0 -x {0.0 1.0 14473 ------- null}
d -t 0.235328 -s 0 -d 1 -p tcp -e 576 -c 0 -i 68 -a 0 -x {0.0 1.0 14473 ------- null}
- -t 0.238048 -s 0 -d 1 -p tcp -e 576 -c 1 -i 43 -a 1 -x {0.1 1.1 5361 ------- null}
h -t 0.238048 -s 0 -d 1 -p tcp -e 576 -c 1 -i 43 -a 1 -x {0.1 1.1 -1 ------- null}
r -t 0.238832 -s 0 -d 1 -p tcp -e 576 -c 1 -i 38 -a 1 -x {0.1 1.1 3753 ------- null}
+ -t 0.238832 -s 1 -d 0 -p ack -e 40 -c 1 -i 69 -a 1 -x {1.1 0.1 1 ------- null}
- -t 0.238832 -s 1 -d 0 -p ack -e 40 -c 1 -i 69 -a 1 -x {1.1 0.1 1 ------- null}
h -t 0.238832 -s 1 -d 0 -p ack -e 40 -c 1 -i 69 -a 1 -x {1.1 0.1 -1 ------- null}
r -t 0.239936 -s 1 -d 0 -p ack -e 40 -c 0 -i 63 -a 0 -x {1.0 0.0 1 ------- null}
+ -t 0.239936 -s 0 -d 1 -p tcp -e 576 -c 0 -i 70 -a 0 -x {0.0 1.0 15009 ------- null}
+ -t 0.239936 -s 0 -d 1 -p tcp -e 576 -c 0 -i 71 -a 0 -x {0.0 1.0 15545 ------- null}
d -t 0.239936 -s 0 -d 1 -p tcp -e 576 -c 0 -i 71 -a 0 -x {0.0 1.0 15545 ------- null}
- -t 0.242656 -s 0 -d 1 -p tcp -e 576 -c 1 -i 46 -a 1 -x {0.1 1.1 6433 ------- null}
h -t 0.242656 -s 0 -d 1 -p tcp -e 576 -c 1 -i 46 -a 1 -x {0.1 1.1 -1 ------- null}
r -t 0.24344 -s 0 -d 1 -p tcp -e 576 -c 1 -i 40 -a 1 -x {0.1 1.1 4289 ------- null}
+ -t 0.24344 -s 1 -d 0 -p ack -e 40 -c 1 -i 72 -a 1 -x {1.1 0.1 1 ------- null}
- -t 0.24344 -s 1 -d 0 -p ack -e 40 -c 1 -i 72 -a 1 -x {1.1 0.1 1 ------- null}
h -t 0.24344 -s 1 -d 0 -p ack -e 40 -c 1 -i 72 -a 1 -x {1.1 0.1 -1 ------- null}
r -t 0.244544 -s 1 -d 0 -p ack -e 40 -c 1 -i 66 -a 1 -x {1.1 0.1 1 ------- null}
+ -t 0.244544 -s 0 -d 1 -p tcp -e 576 -c 1 -i 73 -a 1 -x {0.1 1.1 7505 ------- null}
+ -t 0.244544 -s 0 -d 1 -p tcp -e 576 -c 1 -i 74 -a 1 -x {0.1 1.1 8041 ------- null}
d -t 0.244544 -s 0 -d 1 -p tcp -e 576 -c 1 -i 74 -a 1 -x {0.1 1.1 8041 ------- null}
- -t 0.247264 -s 0 -d 1 -p tcp -e 576 -c 0 -i 49 -a 0 -x {0.0 1.0 7505 ------- null}
h -t 0.247264 -s 0 -d 1 -p tcp -e 576 -c 0 -i 49 -a 0 -x {0.0 1.0 -1 ------- null}
r -t 0.248048 -s 0 -d 1 -p tcp -e 576 -c 1 -i 41 -a 1 -x {0.1 1.1 4825 ------- null}
+ -t 0.248048 -s 1 -d 0 -p ack -e 40 -c 1 -i 75 -a 1 -x {1.1 0.1 1 ------- null}
- -t 0.248048 -s 1 -d 0 -p ack -e 40 -c 1 -i 75 -a 1 -x {1.1 0.1 1 ------- null}
h -t 0.248048 -s 1 -d 0 -p ack -e 40 -c 1 -i 75 -a 1 -x {1.1 0.1 -1 ------- null}
r -t 0.249152 -s 1 -d 0 -p ack -e 40 -c 1 -i 69 -a 1 -x {1.1 0.1 1 ------- null}
+ -t 0.249152 -s 0 -d 1 -p tcp -e 576 -c 1 -i 76 -a 1 -x {0.1 1.1 8577 ------- null}
+ -t 0.249152 -s 0 -d 1 -p tcp -e 576 -c 1 -i 77 -a 1 -x {0.1 1.1 9113 ------- null}
d -t 0.249152 -s 0 -d 1 -p tcp -e 576 -c 1 -i 77 -a 1 -x {0.1 1.1 9113 ------- null}
- -t 0.251872 -s 0 -d 1 -p tcp -e 576 -c 0 -i 52 -a 0 -x {0.0 1.0 8577 ------- null}
h -t 0.251872 -s 0 -d 1 -p tcp -e 576 -c 0 -i 52 -a 0 -x {0.0 1.0 -1 ------- null}
r -t 0.252656 -s 0 -d 1 -p tcp -e 576 -c 1 -i 43 -a 1 -x {0.1 1.1 5361 ------- null}
+ -t 0.252656 -s 1 -d 0 -p ack -e 40 -c 1 -i 78 -a 1 -x {1.1 0.1 1 ------- null}
- -t 0.252656 -s 1 -d 0 -p ack -e 40 -c 1 -i 78 -a 1 -x {1.1 0.1 1 ------- null}
h -t 0.252656 -s 1 -d 0 -p ack -e 40 -c 1 -i 78 -a 1 -x {1.1 0.1 -1 ------- null}
r -t 0.25376 -s 1 -d 0 -p ack -e 40 -c 1 -i 72 -a 1 -x {1.1 0.1 1 ------- null}
+ -t 0.25376 -s 0 -d 1 -p tcp -e 576 -c 1 -i 79 -a 1 -x {0.1 1.1 9649 ------- null}
+ -t 0.25376 -s 0 -d 1 -p tcp -e 576 -c 1 -i 80 -a 1 -x {0.1 1.1 10185 ------- null}
d -t 0.25376 -s 0 -d 1 -p tcp -e 576 -c 1 -i 80 -a 1 -x {0.1 1.1 10185 ------- null}
- -t 0.25648 -s 0 -d 1 -p tcp -e 576 -c 0 -i 55 -a 0 -x {0.0 1.0 9649 ------- null}
h -t 0.25648 -s 0 -d 1 -p tcp -e 576 -c 0 -i 55 -a 0 -x {0.0 1.0 -1 ------- null}
r -t 0.257264 -s 0 -d 1 -p tcp -e 576 -c 1 -i 46 -a 1 -x {0.1 1.1 6433 ------- null}
+ -t 0.257264 -s 1 -d 0 -p ack -e 40 -c 1 -i 81 -a 1 -x {1.1 0.1 1 ------- null}
- -t 0.257264 -s 1 -d 0 -p ack -e 40 -c 1 -i 81 -a 1 -x {1.1 0.1 1 ------- null}
h -t 0.257264 -s 1 -d 0 -p ack -e 40 -c 1 -i 81 -a 1 -x {1.1 0.1 -1 ------- null}
r -t 0.258368 -s 1 -d 0 -p ack -e 40 -c 1 -i 75 -a 1 -x {1.1 0.1 1 ------- null}
+ -t 0.258368 -s 0 -d 1 -p tcp -e 576 -c 1 -i 82 -a 1 -x {0.1 1.1 10721 ------- null}
+ -t 0.258368 -s 0 -d 1 -p tcp -e 576 -c 1 -i 83 -a 1 -x {0.1 1.1 11257 ------- null}
d -t 0.258368 -s 0 -d 1 -p tcp -e 576 -c 1 -i 83 -a 1 -x {0.1 1.1 11257 ------- null}
- -t 0.261088 -s 0 -d 1 -p tcp -e 576 -c 0 -i 58 -a 0 -x {0.0 1.0 10721 ------- null}
h -t 0.261088 -s 0 -d 1 -p tcp -e 576 -c 0 -i 58 -a 0 -x {0.0 1.0 -1 ------- null}
r -t 0.261872 -s 0 -d 1 -p tcp -e 576 -c 0 -i 49 -a 0 -x {0.0 1.0 7505 ------- null}
+ -t 0.261872 -s 1 -d 0 -p ack -e 40 -c 0 -i 84 -a 0 -x {1.0 0.0 1 ------- null}
- -t 0.261872 -s 1 -d 0 -p ack -e 40 -c 0 -i 84 -a 0 -x {1.0 0.0 1 ------- null}
h -t 0.261872 -s 1 -d 0 -p ack -e 40 -c 0 -i 84 -a 0 -x {1.0 0.0 -1 ------- null}
r -t 0.262976 -s 1 -d 0 -p ack -e 40 -c 1 -i 78 -a 1 -x {1.1 0.1 1 ------- null}
+ -t 0.262976 -s 0 -d 1 -p tcp -e 576 -c 1 -i 85 -a 1 -x {0.1 1.1 11793 ------- null}
+ -t 0.262976 -s 0 -d 1 -p tcp -e 576 -c 1 -i 86 -a 1 -x {0.1 1.1 12329 ------- null}
d -t 0.262976 -s 0 -d 1 -p tcp -e 576 -c 1 -i 86 -a 1 -x {0.1 1.1 12329 ------- null}
- -t 0.265696 -s 0 -d 1 -p tcp -e 576 -c 0 -i 61 -a 0 -x {0.0 1.0 11793 ------- null}
h -t 0.265696 -s 0 -d 1 -p tcp -e 576 -c 0 -i 61 -a 0 -x {0.0 1.0 -1 ------- null}
r -t 0.26648 -s 0 -d 1 -p tcp -e 576 -c 0 -i 52 -a 0 -x {0.0 1.0 8577 ------- null}
+ -t 0.26648 -s 1 -d 0 -p ack -e 40 -c 0 -i 87 -a 0 -x {1.0 0.0 1 ------- null}
- -t 0.26648 -s 1 -d 0 -p ack -e 40 -c 0 -i 87 -a 0 -x {1.0 0.0 1 ------- null}
h -t 0.26648 -s 1 -d 0 -p ack -e 40 -c 0 -i 87 -a 0 -x {1.0 0.0 -1 ------- null}
r -t 0.267584 -s 1 -d 0 -p ack -e 40 -c 1 -i 81 -a 1 -x {1.1 0.1 1 ------- null}
- -t 0.270304 -s 0 -d 1 -p tcp -e 576 -c 0 -i 64 -a 0 -x {0.0 1.0 12865 ------- null}
h -t 0.270304 -s 0 -d 1 -p tcp -e 576 -c 0 -i 64 -a 0 -x {0.0 1.0 -1 ------- null}
r -t 0.271088 -s 0 -d 1 -p tcp -e 576 -c 0 -i 55 -a 0 -x {0.0 1.0 9649 ------- null}
+ -t 0.271088 -s 1 -d 0 -p ack -e 40 -c 0 -i 88 -a 0 -x {1.0 0.0 1 ------- null}
- -t 0.271088 -s 1 -d 0 -p ack -e 40 -c 0 -i 88 -a 0 -x {1.0 0.0 1 ------- null}
h -t 0.271088 -s 1 -d 0 -p ack -e 40 -c 0 -i 88 -a 0 -x {1.0 0.0 -1 ------- null}
r -t 0.272192 -s 1 -d 0 -p ack -e 40 -c 0 -i 84 -a 0 -x {1.0 0.0 1 ------- null}
+ -t 0.272192 -s 0 -d 1 -p tcp -e 576 -c 0 -i 89 -a 0 -x {0.0 1.0 16081 ------- null}
+ -t 0.272192 -s 0 -d 1 -p tcp -e 576 -c 0 -i 90 -a 0 -x {0.0 1.0 16617 ------- null}
- -t 0.274912 -s 0 -d 1 -p tcp -e 576 -c 0 -i 67 -a 0 -x {0.0 1.0 13937 ------- null}
h -t 0.274912 -s 0 -d 1 -p tcp -e 576 -c 0 -i 67 -a 0 -x {0.0 1.0 -1 ------- null}
r -t 0.275696 -s 0 -d 1 -p tcp -e 576 -c 0 -i 58 -a 0 -x {0.0 1.0 10721 ------- null}
+ -t 0.275696 -s 1 -d 0 -p ack -e 40 -c 0 -i 91 -a 0 -x {1.0 0.0 1 ------- null}
- -t 0.275696 -s 1 -d 0 -p ack -e 40 -c 0 -i 91 -a 0 -x {1.0 0.0 1 ------- null}
h -t 0.275696 -s 1 -d 0 -p ack -e 40 -c 0 -i 91 -a 0 -x {1.0 0.0 -1 ------- null}
r -t 0.2768 -s 1 -d 0 -p ack -e 40 -c 0 -i 87 -a 0 -x {1.0 0.0 1 ------- null}
- -t 0.27952 -s 0 -d 1 -p tcp -e 576 -c 0 -i 70 -a 0 -x {0.0 1.0 15009 ------- null}
h -t 0.27952 -s 0 -d 1 -p tcp -e 576 -c 0 -i 70 -a 0 -x {0.0 1.0 -1 ------- null}
r -t 0.280304 -s 0 -d 1 -p tcp -e 576 -c 0 -i 61 -a 0 -x {0.0 1.0 11793 ------- null}
+ -t 0.280304 -s 1 -d 0 -p ack -e 40 -c 0 -i 92 -a 0 -x {1.0 0.0 1 ------- null}
- -t 0.280304 -s 1 -d 0 -p ack -e 40 -c 0 -i 92 -a 0 -x {1.0 0.0 1 ------- null}
h -t 0.280304 -s 1 -d 0 -p ack -e 40 -c 0 -i 92 -a 0 -x {1.0 0.0 -1 ------- null}
r -t 0.281408 -s 1 -d 0 -p ack -e 40 -c 0 -i 88 -a 0 -x {1.0 0.0 1 ------- null}
- -t 0.284128 -s 0 -d 1 -p tcp -e 576 -c 1 -i 73 -a 1 -x {0.1 1.1 7505 ------- null}
h -t 0.284128 -s 0 -d 1 -p tcp -e 576 -c 1 -i 73 -a 1 -x {0.1 1.1 -1 ------- null}
r -t 0.284912 -s 0 -d 1 -p tcp -e 576 -c 0 -i 64 -a 0 -x {0.0 1.0 12865 ------- null}
+ -t 0.284912 -s 1 -d 0 -p ack -e 40 -c 0 -i 93 -a 0 -x {1.0 0.0 1 ------- null}
- -t 0.284912 -s 1 -d 0 -p ack -e 40 -c 0 -i 93 -a 0 -x {1.0 0.0 1 ------- null}
h -t 0.284912 -s 1 -d 0 -p ack -e 40 -c 0 -i 93 -a 0 -x {1.0 0.0 -1 ------- null}
r -t 0.286016 -s 1 -d 0 -p ack -e 40 -c 0 -i 91 -a 0 -x {1.0 0.0 1 ------- null}
+ -t 0.286016 -s 0 -d 1 -p tcp -e 576 -c 0 -i 94 -a 0 -x {0.0 1.0 8041 ------- null}
- -t 0.288736 -s 0 -d 1 -p tcp -e 576 -c 1 -i 76 -a 1 -x {0.1 1.1 8577 ------- null}
h -t 0.288736 -s 0 -d 1 -p tcp -e 576 -c 1 -i 76 -a 1 -x {0.1 1.1 -1 ------- null}
r -t 0.28952 -s 0 -d 1 -p tcp -e 576 -c 0 -i 67 -a 0 -x {0.0 1.0 13937 ------- null}
+ -t 0.28952 -s 1 -d 0 -p ack -e 40 -c 0 -i 95 -a 0 -x {1.0 0.0 1 ------- null}
- -t 0.28952 -s 1 -d 0 -p ack -e 40 -c 0 -i 95 -a 0 -x {1.0 0.0 1 ------- null}
h -t 0.28952 -s 1 -d 0 -p ack -e 40 -c 0 -i 95 -a 0 -x {1.0 0.0 -1 ------- null}
r -t 0.290624 -s 1 -d 0 -p ack -e 40 -c 0 -i 92 -a 0 -x {1.0 0.0 1 ------- null}
- -t 0.293344 -s 0 -d 1 -p tcp -e 576 -c 1 -i 79 -a 1 -x {0.1 1.1 9649 ------- null}
h -t 0.293344 -s 0 -d 1 -p tcp -e 576 -c 1 -i 79 -a 1 -x {0.1 1.1 -1 ------- null}
r -t 0.294128 -s 0 -d 1 -p tcp -e 576 -c 0 -i 70 -a 0 -x {0.0 1.0 15009 ------- null}
+ -t 0.294128 -s 1 -d 0 -p ack -e 40 -c 0 -i 96 -a 0 -x {1.0 0.0 1 ------- null}
- -t 0.294128 -s 1 -d 0 -p ack -e 40 -c 0 -i 96 -a 0 -x {1.0 0.0 1 ------- null}
h -t 0.294128 -s 1 -d 0 -p ack -e 40 -c 0 -i 96 -a 0 -x {1.0 0.0 -1 ------- null}
r -t 0.295232 -s 1 -d 0 -p ack -e 40 -c 0 -i 93 -a 0 -x {1.0 0.0 1 ------- null}
- -t 0.297952 -s 0 -d 1 -p tcp -e 576 -c 1 -i 82 -a 1 -x {0.1 1.1 10721 ------- null}
h -t 0.297952 -s 0 -d 1 -p tcp -e 576 -c 1 -i 82 -a 1 -x {0.1 1.1 -1 ------- null}
r -t 0.298736 -s 0 -d 1 -p tcp -e 576 -c 1 -i 73 -a 1 -x {0.1 1.1 7505 ------- null}
+ -t 0.298736 -s 1 -d 0 -p ack -e 40 -c 1 -i 97 -a 1 -x {1.1 0.1 1 ------- null}
- -t 0.298736 -s 1 -d 0 -p ack -e 40 -c 1 -i 97 -a 1 -x {1.1 0.1 1 ------- null}
h -t 0.298736 -s 1 -d 0 -p ack -e 40 -c 1 -i 97 -a 1 -x {1.1 0.1 -1 ------- null}
r -t 0.29984 -s 1 -d 0 -p ack -e 40 -c 0 -i 95 -a 0 -x {1.0 0.0 1 ------- null}
- -t 0.30256 -s 0 -d 1 -p tcp -e 576 -c 1 -i 85 -a 1 -x {0.1 1.1 11793 ------- null}
h -t 0.30256 -s 0 -d 1 -p tcp -e 576 -c 1 -i 85 -a 1 -x {0.1 1.1 -1 ------- null}
r -t 0.303344 -s 0 -d 1 -p tcp -e 576 -c 1 -i 76 -a 1 -x {0.1 1.1 8577 ------- null}
+ -t 0.303344 -s 1 -d 0 -p ack -e 40 -c 1 -i 98 -a 1 -x {1.1 0.1 1 ------- null}
- -t 0.303344 -s 1 -d 0 -p ack -e 40 -c 1 -i 98 -a 1 -x {1.1 0.1 1 ------- null}
h -t 0.303344 -s 1 -d 0 -p ack -e 40 -c 1 -i 98 -a 1 -x {1.1 0.1 -1 ------- null}
r -t 0.304448 -s 1 -d 0 -p ack -e 40 -c 0 -i 96 -a 0 -x {1.0 0.0 1 ------- null}
- -t 0.307168 -s 0 -d 1 -p tcp -e 576 -c 0 -i 89 -a 0 -x {0.0 1.0 16081 ------- null}
h -t 0.307168 -s 0 -d 1 -p tcp -e 576 -c 0 -i 89 -a 0 -x {0.0 1.0 -1 ------- null}
r -t 0.307952 -s 0 -d 1 -p tcp -e 576 -c 1 -i 79 -a 1 -x {0.1 1.1 9649 ------- null}
+ -t 0.307952 -s 1 -d 0 -p ack -e 40 -c 1 -i 99 -a 1 -x {1.1 0.1 1 ------- null}
- -t 0.307952 -s 1 -d 0 -p ack -e 40 -c 1 -i 99 -a 1 -x {1.1 0.1 1 ------- null}