V -t * -v 1.0a5 -a 0
A -t * -n 1 -p 0 -o 0x7fffffff -c 30 -a 1
A -t * -h 1 -m 1073741823 -s 0
c -t * -i 0 -n blue
c -t * -i 1 -n red
n -t * -a 0 -s 0 -S UP -v circle -c black -i black
n -t * -a 1 -s 1 -S UP -v circle -c black -i black
n -t * -a 2 -s 2 -S UP -v circle -c black -i black
n -t * -a 3 -s 3 -S UP -v circle -c black -i black
l -t * -s 0 -d 1 -S UP -r 10000000 -D 0.0050000000000000001 -c black -o right
l -t * -s 1 -d 2 -S UP -r 1000000 -D 0.0050000000000000001 -c black -o right
l -t * -s 2 -d 3 -S UP -r 10000000 -D 0.0050000000000000001 -c black -o right
q -t * -s 2 -d 1 -a -0.5
q -t * -s 1 -d 2 -a -0.5
+ -t 0.1 -s 0 -d 1 -p tcp -e 40 -c 0 -i 0 -a 0 -x {0.0 3.0 0 ------- null}
- -t 0.1 -s 0 -d 1 -p tcp -e 40 -c 0 -i 0 -a 0 -x {0.0 3.0 0 ------- null}
h -t 0.1 -s 0 -d 1 -p tcp -e 40 -c 0 -i 0 -a 0 -x {0.0 3.0 -1 ------- null}
r -t 0.105032 -s 0 -d 1 -p tcp -e 40 -c 0 -i 0 -a 0 -x {0.0 3.0 0 ------- null}
+ -t 0.105032 -s 1 -d 2 -p tcp -e 40 -c 0 -i 0 -a 0 -x {0.0 3.0 0 ------- null}
- -t 0.105032 -s 1 -d 2 -p tcp -e 40 -c 0 -i 0 -a 0 -x {0.0 3.0 0 ------- null}
h -t 0.105032 -s 1 -d 2 -p tcp -e 40 -c 0 -i 0 -a 0 -x {0.0 3.0 -1 ------- null}
r -t 0.110352 -s 1 -d 2 -p tcp -e 40 -c 0 -i 0 -a 0 -x {0.0 3.0 0 ------- null}
+ -t 0.110352 -s 2 -d 3 -p tcp -e 40 -c 0 -i 0 -a 0 -x {0.0 3.0 0 ------- null}
- -t 0.110352 -s 2 -d 3 -p tcp -e 40 -c 0 -i 0 -a 0 -x {0.0 3.0 0 ------- null}
h -t 0.110352 -s 2 -d 3 -p tcp -e 40 -c 0 -i 0 -a 0 -x {0.0 3.0 -1 ------- null}
r -t 0.115384 -s 2 -d 3 -p tcp -e 40 -c 0 -i 0 -a 0 -x {0.0 3.0 0 ------- null}
+ -t 0.115384 -s 3 -d 2 -p ack -e 40 -c 0 -i 1 -a 0 -x {3.0 0.0 0 ------- null}
- -t 0.115384 -s 3 -d 2 -p ack -e 40 -c 0 -i 1 -a 0 -x {3.0 0.0 0 ------- null}
h -t 0.115384 -s 3 -d 2 -p ack -e 40 -c 0 -i 1 -a 0 -x {3.0 0.0 -1 ------- null}
r -t 0.120416 -s 3 -d 2 -p ack -e 40 -c 0 -i 1 -a 0 -x {3.0 0.0 0 ------- null}
+ -t 0.120416 -s 2 -d 1 -p ack -e 40 -c 0 -i 1 -a 0 -x {3.0 0.0 0 ------- null}
- -t 0.120416 -s 2 -d 1 -p ack -e 40 -c 0 -i 1 -a 0 -x {3.0 0.0 0 ------- null}
h -t 0.120416 -s 2 -d 1 -p ack -e 40 -c 0 -i 1 -a 0 -x {3.0 0.0 -1 ------- null}
r -t 0.125736 -s 2 -d 1 -p ack -e 40 -c 0 -i 1 -a 0 -x {3.0 0.0 0 ------- null}
+ -t 0.125736 -s 1 -d 0 -p ack -e 40 -c 0 -i 1 -a 0 -x {3.0 0.0 0 ------- null}
- -t 0.125736 -s 1 -d 0 -p ack -e 40 -c 0 -i 1 -a 0 -x {3.0 0.0 0 ------- null}
h -t 0.125736 -s 1 -d 0 -p ack -e 40 -c 0 -i 1 -a 0 -x {3.0 0.0 -1 ------- null}
r -t 0.130768 -s 1 -d 0 -p ack -e 40 -c 0 -i 1 -a 0 -x {3.0 0.0 0 ------- null}
+ -t 0.130768 -s 0 -d 1 -p tcp -e 40 -c 0 -i 2 -a 0 -x {0.0 3.0 1 ------- null}
- -t 0.130768 -s 0 -d 1 -p tcp -e 40 -c 0 -i 2 -a 0 -x {0.0 3.0 1 ------- null}
h -t 0.130768 -s 0 -d 1 -p tcp -e 40 -c 0 -i 2 -a 0 -x {0.0 3.0 -1 ------- null}
+ -t 0.130768 -s 0 -d 1 -p tcp -e 576 -c 0 -i 3 -a 0 -x {0.0 3.0 1 ------- null}
+ -t 0.130768 -s 0 -d 1 -p tcp -e 576 -c 0 -i 4 -a 0 -x {0.0 3.0 537 ------- null}
- -t 0.1308 -s 0 -d 1 -p tcp -e 576 -c 0 -i 3 -a 0 -x {0.0 3.0 1 ------- null}
h -t 0.1308 -s 0 -d 1 -p tcp -e 576 -c 0 -i 3 -a 0 -x {0.0 3.0 -1 ------- null}
- -t 0.1312608 -s 0 -d 1 -p tcp -e 576 -c 0 -i 4 -a 0 -x {0.0 3.0 537 ------- null}
h -t 0.1312608 -s 0 -d 1 -p tcp -e 576 -c 0 -i 4 -a 0 -x {0.0 3.0 -1 ------- null}
r -t 0.1358 -s 0 -d 1 -p tcp -e 40 -c 0 -i 2 -a 0 -x {0.0 3.0 1 ------- null}
+ -t 0.1358 -s 1 -d 2 -p tcp -e 40 -c 0 -i 2 -a 0 -x {0.0 3.0 1 ------- null}
- -t 0.1358 -s 1 -d 2 -p tcp -e 40 -c 0 -i 2 -a 0 -x {0.0 3.0 1 ------- null}
h -t 0.1358 -s 1 -d 2 -p tcp -e 40 -c 0 -i 2 -a 0 -x {0.0 3.0 -1 ------- null}
r -t 0.1362608 -s 0 -d 1 -p tcp -e 576 -c 0 -i 3 -a 0 -x {0.0 3.0 1 ------- null}
+ -t 0.1362608 -s 1 -d 2 -p tcp -e 576 -c 0 -i 3 -a 0 -x {0.0 3.0 1 ------- null}
- -t 0.1362608 -s 1 -d 2 -p tcp -e 576 -c 0 -i 3 -a 0 -x {0.0 3.0 1 ------- null}
h -t 0.1362608 -s 1 -d 2 -p tcp -e 576 -c 0 -i 3 -a 0 -x {0.0 3.0 -1 ------- null}
r -t 0.1367216 -s 0 -d 1 -p tcp -e 576 -c 0 -i 4 -a 0 -x {0.0 3.0 537 ------- null}
+ -t 0.1367216 -s 1 -d 2 -p tcp -e 576 -c 0 -i 4 -a 0 -x {0.0 3.0 537 ------- null}
- -t 0.1408688 -s 1 -d 2 -p tcp -e 576 -c 0 -i 4 -a 0 -x {0.0 3.0 537 ------- null}
h -t 0.1408688 -s 1 -d 2 -p tcp -e 576 -c 0 -i 4 -a 0 -x {0.0 3.0 -1 ------- null}
r -t 0.14112 -s 1 -d 2 -p tcp -e 40 -c 0 -i 2 -a 0 -x {0.0 3.0 1 ------- null}
+ -t 0.14112 -s 2 -d 3 -p tcp -e 40 -c 0 -i 2 -a 0 -x {0.0 3.0 1 ------- null}
- -t 0.14112 -s 2 -d 3 -p tcp -e 40 -c 0 -i 2 -a 0 -x {0.0 3.0 1 ------- null}
h -t 0.14112 -s 2 -d 3 -p tcp -e 40 -c 0 -i 2 -a 0 -x {0.0 3.0 -1 ------- null}
r -t 0.1458688 -s 1 -d 2 -p tcp -e 576 -c 0 -i 3 -a 0 -x {0.0 3.0 1 ------- null}
+ -t 0.1458688 -s 2 -d 3 -p tcp -e 576 -c 0 -i 3 -a 0 -x {0.0 3.0 1 ------- null}
- -t 0.1458688 -s 2 -d 3 -p tcp -e 576 -c 0 -i 3 -a 0 -x {0.0 3.0 1 ------- null}
h -t 0.1458688 -s 2 -d 3 -p tcp -e 576 -c 0 -i 3 -a 0 -x {0.0 3.0 -1 ------- null}
r -t 0.146152 -s 2 -d 3 -p tcp -e 40 -c 0 -i 2 -a 0 -x {0.0 3.0 1 ------- null}
r -t 0.1504768 -s 1 -d 2 -p tcp -e 576 -c 0 -i 4 -a 0 -x {0.0 3.0 537 ------- null}
+ -t 0.1504768 -s 2 -d 3 -p tcp -e 576 -c 0 -i 4 -a 0 -x {0.0 3.0 537 ------- null}
- -t 0.1504768 -s 2 -d 3 -p tcp -e 576 -c 0 -i 4 -a 0 -x {0.0 3.0 537 ------- null}
h -t 0.1504768 -s 2 -d 3 -p tcp -e 576 -c 0 -i 4 -a 0 -x {0.0 3.0 -1 ------- null}
r -t 0.1513296 -s 2 -d 3 -p tcp -e 576 -c 0 -i 3 -a 0 -x {0.0 3.0 1 ------- null}
+ -t 0.1513296 -s 3 -d 2 -p ack -e 40 -c 0 -i 5 -a 0 -x {3.0 0.0 1 ------- null}
- -t 0.1513296 -s 3 -d 2 -p ack -e 40 -c 0 -i 5 -a 0 -x {3.0 0.0 1 ------- null}
h -t 0.1513296 -s 3 -d 2 -p ack -e 40 -c 0 -i 5 -a 0 -x {3.0 0.0 -1 ------- null}
r -t 0.1559376 -s 2 -d 3 -p tcp -e 576 -c 0 -i 4 -a 0 -x {0.0 3.0 537 ------- null}
+ -t 0.1559376 -s 3 -d 2 -p ack -e 40 -c 0 -i 6 -a 0 -x {3.0 0.0 1 ------- null}
- -t 0.1559376 -s 3 -d 2 -p ack -e 40 -c 0 -i 6 -a 0 -x {3.0 0.0 1 ------- null}
h -t 0.1559376 -s 3 -d 2 -p ack -e 40 -c 0 -i 6 -a 0 -x {3.0 0.0 -1 ------- null}
r -t 0.1563616 -s 3 -d 2 -p ack -e 40 -c 0 -i 5 -a 0 -x {3.0 0.0 1 ------- null}
+ -t 0.1563616 -s 2 -d 1 -p ack -e 40 -c 0 -i 5 -a 0 -x {3.0 0.0 1 ------- null}
- -t 0.1563616 -s 2 -d 1 -p ack -e 40 -c 0 -i 5 -a 0 -x {3.0 0.0 1 ------- null}
h -t 0.1563616 -s 2 -d 1 -p ack -e 40 -c 0 -i 5 -a 0 -x {3.0 0.0 -1 ------- null}
r -t 0.1609696 -s 3 -d 2 -p ack -e 40 -c 0 -i 6 -a 0 -x {3.0 0.0 1 ------- null}
+ -t 0.1609696 -s 2 -d 1 -p ack -e 40 -c 0 -i 6 -a 0 -x {3.0 0.0 1 ------- null}
- -t 0.1609696 -s 2 -d 1 -p ack -e 40 -c 0 -i 6 -a 0 -x {3.0 0.0 1 ------- null}
h -t 0.1609696 -s 2 -d 1 -p ack -e 40 -c 0 -i 6 -a 0 -x {3.0 0.0 -1 ------- null}
r -t 0.1616816 -s 2 -d 1 -p ack -e 40 -c 0 -i 5 -a 0 -x {3.0 0.0 1 ------- null}
+ -t 0.1616816 -s 1 -d 0 -p ack -e 40 -c 0 -i 5 -a 0 -x {3.0 0.0 1 ------- null}
- -t 0.1616816 -s 1 -d 0 -p ack -e 40 -c 0 -i 5 -a 0 -x {3.0 0.0 1 ------- null}
h -t 0.1616816 -s 1 -d 0 -p ack -e 40 -c 0 -i 5 -a 0 -x {3.0 0.0 -1 ------- null}
r -t 0.1662896 -s 2 -d 1 -p ack -e 40 -c 0 -i 6 -a 0 -x {3.0 0.0 1 ------- null}
+ -t 0.1662896 -s 1 -d 0 -p ack -e 40 -c 0 -i 6 -a 0 -x {3.0 0.0 1 ------- null}
- -t 0.1662896 -s 1 -d 0 -p ack -e 40 -c 0 -i 6 -a 0 -x {3.0 0.0 1 ------- null}
h -t 0.1662896 -s 1 -d 0 -p ack -e 40 -c 0 -i 6 -a 0 -x {3.0 0.0 -1 ------- null}
r -t 0.1667136 -s 1 -d 0 -p ack -e 40 -c 0 -i 5 -a 0 -x {3.0 0.0 1 ------- null}
+ -t 0.1667136 -s 0 -d 1 -p tcp -e 576 -c 0 -i 7 -a 0 -x {0.0 3.0 1073 ------- null}
- -t 0.1667136 -s 0 -d 1 -p tcp -e 576 -c 0 -i 7 -a 0 -x {0.0 3.0 1073 ------- null}
h -t 0.1667136 -s 0 -d 1 -p tcp -e 576 -c 0 -i 7 -a 0 -x {0.0 3.0 -1 ------- null}
+ -t 0.1667136 -s 0 -d 1 -p tcp -e 576 -c 0 -i 8 -a 0 -x {0.0 3.0 1609 ------- null}
- -t 0.1671744 -s 0 -d 1 -p tcp -e 576 -c 0 -i 8 -a 0 -x {0.0 3.0 1609 ------- null}
h -t 0.1671744 -s 0 -d 1 -p tcp -e 576 -c 0 -i 8 -a 0 -x {0.0 3.0 -1 ------- null}
r -t 0.1713216 -s 1 -d 0 -p ack -e 40 -c 0 -i 6 -a 0 -x {3.0 0.0 1 ------- null}
+ -t 0.1713216 -s 0 -d 1 -p tcp -e 576 -c 0 -i 9 -a 0 -x {0.0 3.0 2145 ------- null}
- -t 0.1713216 -s 0 -d 1 -p tcp -e 576 -c 0 -i 9 -a 0 -x {0.0 3.0 2145 ------- null}
h -t 0.1713216 -s 0 -d 1 -p tcp -e 576 -c 0 -i 9 -a 0 -x {0.0 3.0 -1 ------- null}
+ -t 0.1713216 -s 0 -d 1 -p tcp -e 576 -c 0 -i 10 -a 0 -x {0.0 3.0 2681 ------- null}
- -t 0.1717824 -s 0 -d 1 -p tcp -e 576 -c 0 -i 10 -a 0 -x {0.0 3.0 2681 ------- null}
h -t 0.1717824 -s 0 -d 1 -p tcp -e 576 -c 0 -i 10 -a 0 -x {0.0 3.0 -1 ------- null}
r -t 0.1721744 -s 0 -d 1 -p tcp -e 576 -c 0 -i 7 -a 0 -x {0.0 3.0 1073 ------- null}
+ -t 0.1721744 -s 1 -d 2 -p tcp -e 576 -c 0 -i 7 -a 0 -x {0.0 3.0 1073 ------- null}
- -t 0.1721744 -s 1 -d 2 -p tcp -e 576 -c 0 -i 7 -a 0 -x {0.0 3.0 1073 ------- null}
h -t 0.1721744 -s 1 -d 2 -p tcp -e 576 -c 0 -i 7 -a 0 -x {0.0 3.0 -1 ------- null}
r -t 0.1726352 -s 0 -d 1 -p tcp -e 576 -c 0 -i 8 -a 0 -x {0.0 3.0 1609 ------- null}
+ -t 0.1726352 -s 1 -d 2 -p tcp -e 576 -c 0 -i 8 -a 0 -x {0.0 3.0 1609 ------- null}
r -t 0.1767824 -s 0 -d 1 -p tcp -e 576 -c 0 -i 9 -a 0 -x {0.0 3.0 2145 ------- null}
+ -t 0.1767824 -s 1 -d 2 -p tcp -e 576 -c 0 -i 9 -a 0 -x {0.0 3.0 2145 ------- null}
- -t 0.1767824 -s 1 -d 2 -p tcp -e 576 -c 0 -i 8 -a 0 -x {0.0 3.0 1609 ------- null}
h -t 0.1767824 -s 1 -d 2 -p tcp -e 576 -c 0 -i 8 -a 0 -x {0.0 3.0 -1 ------- null}
r -t 0.1772432 -s 0 -d 1 -p tcp -e 576 -c 0 -i 10 -a 0 -x {0.0 3.0 2681 ------- null}
+ -t 0.1772432 -s 1 -d 2 -p tcp -e 576 -c 0 -i 10 -a 0 -x {0.0 3.0 2681 ------- null}
- -t 0.1813904 -s 1 -d 2 -p tcp -e 576 -c 0 -i 9 -a 0 -x {0.0 3.0 2145 ------- null}
h -t 0.1813904 -s 1 -d 2 -p tcp -e 576 -c 0 -i 9 -a 0 -x {0.0 3.0 -1 ------- null}
r -t 0.1817824 -s 1 -d 2 -p tcp -e 576 -c 0 -i 7 -a 0 -x {0.0 3.0 1073 ------- null}
+ -t 0.1817824 -s 2 -d 3 -p tcp -e 576 -c 0 -i 7 -a 0 -x {0.0 3.0 1073 ------- null}
- -t 0.1817824 -s 2 -d 3 -p tcp -e 576 -c 0 -i 7 -a 0 -x {0.0 3.0 1073 ------- null}
h -t 0.1817824 -s 2 -d 3 -p tcp -e 576 -c 0 -i 7 -a 0 -x {0.0 3.0 -1 ------- null}
- -t 0.1859984 -s 1 -d 2 -p tcp -e 576 -c 0 -i 10 -a 0 -x {0.0 3.0 2681 ------- null}
h -t 0.1859984 -s 1 -d 2 -p tcp -e 576 -c 0 -i 10 -a 0 -x {0.0 3.0 -1 ------- null}
r -t 0.1863904 -s 1 -d 2 -p tcp -e 576 -c 0 -i 8 -a 0 -x {0.0 3.0 1609 ------- null}
+ -t 0.1863904 -s 2 -d 3 -p tcp -e 576 -c 0 -i 8 -a 0 -x {0.0 3.0 1609 ------- null}
- -t 0.1863904 -s 2 -d 3 -p tcp -e 576 -c 0 -i 8 -a 0 -x {0.0 3.0 1609 ------- null}
h -t 0.1863904 -s 2 -d 3 -p tcp -e 576 -c 0 -i 8 -a 0 -x {0.0 3.0 -1 ------- null}
r -t 0.1872432 -s 2 -d 3 -p tcp -e 576 -c 0 -i 7 -a 0 -x {0.0 3.0 1073 ------- null}
+ -t 0.1872432 -s 3 -d 2 -p ack -e 40 -c 0 -i 11 -a 0 -x {3.0 0.0 1 ------- null}
- -t 0.1872432 -s 3 -d 2 -p ack -e 40 -c 0 -i 11 -a 0 -x {3.0 0.0 1 ------- null}
h -t 0.1872432 -s 3 -d 2 -p ack -e 40 -c 0 -i 11 -a 0 -x {3.0 0.0 -1 ------- null}
r -t 0.1909984 -s 1 -d 2 -p tcp -e 576 -c 0 -i 9 -a 0 -x {0.0 3.0 2145 ------- null}
+ -t 0.1909984 -s 2 -d 3 -p tcp -e 576 -c 0 -i 9 -a 0 -x {0.0 3.0 2145 ------- null}
- -t 0.1909984 -s 2 -d 3 -p tcp -e 576 -c 0 -i 9 -a 0 -x {0.0 3.0 2145 ------- null}
h -t 0.1909984 -s 2 -d 3 -p tcp -e 576 -c 0 -i 9 -a 0 -x {0.0 3.0 -1 ------- null}
r -t 0.1918512 -s 2 -d 3 -p tcp -e 576 -c 0 -i 8 -a 0 -x {0.0 3.0 1609 ------- null}
+ -t 0.1918512 -s 3 -d 2 -p ack -e 40 -c 0 -i 12 -a 0 -x {3.0 0.0 1 ------- null}
- -t 0.1918512 -s 3 -d 2 -p ack -e 40 -c 0 -i 12 -a 0 -x {3.0 0.0 1 ------- null}
h -t 0.1918512 -s 3 -d 2 -p ack -e 40 -c 0 -i 12 -a 0 -x {3.0 0.0 -1 ------- null}
r -t 0.1922752 -s 3 -d 2 -p ack -e 40 -c 0 -i 11 -a 0 -x {3.0 0.0 1 ------- null}
+ -t 0.1922752 -s 2 -d 1 -p ack -e 40 -c 0 -i 11 -a 0 -x {3.0 0.0 1 ------- null}
- -t 0.1922752 -s 2 -d 1 -p ack -e 40 -c 0 -i 11 -a 0 -x {3.0 0.0 1 ------- null}
h -t 0.1922752 -s 2 -d 1 -p ack -e 40 -c 0 -i 11 -a 0 -x {3.0 0.0 -1 ------- null}
r -t 0.1956064 -s 1 -d 2 -p tcp -e 576 -c 0 -i 10 -a 0 -x {0.0 3.0 2681 ------- null}
+ -t 0.1956064 -s 2 -d 3 -p tcp -e 576 -c 0 -i 10 -a 0 -x {0.0 3.0 2681 ------- null}
- -t 0.1956064 -s 2 -d 3 -p tcp -e 576 -c 0 -i 10 -a 0 -x {0.0 3.0 2681 ------- null}
h -t 0.1956064 -s 2 -d 3 -p tcp -e 576 -c 0 -i 10 -a 0 -x {0.0 3.0 -1 ------- null}
r -t 0.1964592 -s 2 -d 3 -p tcp -e 576 -c 0 -i 9 -a 0 -x {0.0 3.0 2145 ------- null}
+ -t 0.1964592 -s 3 -d 2 -p ack -e 40 -c 0 -i 13 -a 0 -x {3.0 0.0 1 ------- null}
- -t 0.1964592 -s 3 -d 2 -p ack -e 40 -c 0 -i 13 -a 0 -x {3.0 0.0 1 ------- null}
h -t 0.1964592 -s 3 -d 2 -p ack -e 40 -c 0 -i 13 -a 0 -x {3.0 0.0 -1 ------- null}
r -t 0.1968832 -s 3 -d 2 -p ack -e 40 -c 0 -i 12 -a 0 -x {3.0 0.0 1 ------- null}
+ -t 0.1968832 -s 2 -d 1 -p ack -e 40 -c 0 -i 12 -a 0 -x {3.0 0.0 1 ------- null}
- -t 0.1968832 -s 2 -d 1 -p ack -e 40 -c 0 -i 12 -a 0 -x {3.0 0.0 1 ------- null}
h -t 0.1968832 -s 2 -d 1 -p ack -e 40 -c 0 -i 12 -a 0 -x {3.0 0.0 -1 ------- null}
r -t 0.1975952 -s 2 -d 1 -p ack -e 40 -c 0 -i 11 -a 0 -x {3.0 0.0 1 ------- null}
+ -t 0.1975952 -s 1 -d 0 -p ack -e 40 -c 0 -i 11 -a 0 -x {3.0 0.0 1 ------- null}
- -t 0.1975952 -s 1 -d 0 -p ack -e 40 -c 0 -i 11 -a 0 -x {3.0 0.0 1 ------- null}
h -t 0.1975952 -s 1 -d 0 -p ack -e 40 -c 0 -i 11 -a 0 -x {3.0 0.0 -1 ------- null}
r -t 0.2010672 -s 2 -d 3 -p tcp -e 576 -c 0 -i 10 -a 0 -x {0.0 3.0 2681 ------- null}
+ -t 0.2010672 -s 3 -d 2 -p ack -e 40 -c 0 -i 14 -a 0 -x {3.0 0.0 1 ------- null}
- -t 0.2010672 -s 3 -d 2 -p ack -e 40 -c 0 -i 14 -a 0 -x {3.0 0.0 1 ------- null}
h -t 0.2010672 -s 3 -d 2 -p ack -e 40 -c 0 -i 14 -a 0 -x {3.0 0.0 -1 ------- null}
r -t 0.2014912 -s 3 -d 2 -p ack -e 40 -c 0 -i 13 -a 0 -x {3.0 0.0 1 ------- null}
+ -t 0.2014912 -s 2 -d 1 -p ack -e 40 -c 0 -i 13 -a 0 -x {3.0 0.0 1 ------- null}
- -t 0.2014912 -s 2 -d 1 -p ack -e 40 -c 0 -i 13 -a 0 -x {3.0 0.0 1 ------- null}
h -t 0.2014912 -s 2 -d 1 -p ack -e 40 -c 0 -i 13 -a 0 -x {3.0 0.0 -1 ------- null}
r -t 0.2022032 -s 2 -d 1 -p ack -e 40 -c 0 -i 12 -a 0 -x {3.0 0.0 1 ------- null}
+ -t 0.2022032 -s 1 -d 0 -p ack -e 40 -c 0 -i 12 -a 0 -x {3.0 0.0 1 ------- null}
- -t 0.2022032 -s 1 -d 0 -p ack -e 40 -c 0 -i 12 -a 0 -x {3.0 0.0 1 ------- null}
h -t 0.2022032 -s 1 -d 0 -p ack -e 40 -c 0 -i 12 -a 0 -x {3.0 0.0 -1 ------- null}
r -t 0.2026272 -s 1 -d 0 -p ack -e 40 -c 0 -i 11 -a 0 -x {3.0 0.0 1 ------- null}
+ -t 0.2026272 -s 0 -d 1 -p tcp -e 576 -c 0 -i 15 -a 0 -x {0.0 3.0 3217 ------- null}
- -t 0.2026272 -s 0 -d 1 -p tcp -e 576 -c 0 -i 15 -a 0 -x {0.0 3.0 3217 ------- null}
h -t 0.2026272 -s 0 -d 1 -p tcp -e 576 -c 0 -i 15 -a 0 -x {0.0 3.0 -1 ------- null}
+ -t 0.2026272 -s 0 -d 1 -p tcp -e 576 -c 0 -i 16 -a 0 -x {0.0 3.0 3753 ------- null}
- -t 0.203088 -s 0 -d 1 -p tcp -e 576 -c 0 -i 16 -a 0 -x {0.0 3.0 3753 ------- null}
h -t 0.203088 -s 0 -d 1 -p tcp -e 576 -c 0 -i 16 -a 0 -x {0.0 3.0 -1 ------- null}
r -t 0.2060992 -s 3 -d 2 -p ack -e 40 -c 0 -i 14 -a 0 -x {3.0 0.0 1 ------- null}
+ -t 0.2060992 -s 2 -d 1 -p ack -e 40 -c 0 -i 14 -a 0 -x {3.0 0.0 1 ------- null}
- -t 0.2060992 -s 2 -d 1 -p ack -e 40 -c 0 -i 14 -a 0 -x {3.0 0.0 1 ------- null}
h -t 0.2060992 -s 2 -d 1 -p ack -e 40 -c 0 -i 14 -a 0 -x {3.0 0.0 -1 ------- null}
r -t 0.2068112 -s 2 -d 1 -p ack -e 40 -c 0 -i 13 -a 0 -x {3.0 0.0 1 ------- null}
+ -t 0.2068112 -s 1 -d 0 -p ack -e 40 -c 0 -i 13 -a 0 -x {3.0 0.0 1 ------- null}
- -t 0.2068112 -s 1 -d 0 -p ack -e 40 -c 0 -i 13 -a 0 -x {3.0 0.0 1 ------- null}
h -t 0.2068112 -s 1 -d 0 -p ack -e 40 -c 0 -i 13 -a 0 -x {3.0 0.0 -1 ------- null}
r -t 0.2072352 -s 1 -d 0 -p ack -e 40 -c 0 -i 12 -a 0 -x {3.0 0.0 1 ------- null}
+ -t 0.2072352 -s 0 -d 1 -p tcp -e 576 -c 0 -i 17 -a 0 -x {0.0 3.0 4289 ------- null}
- -t 0.2072352 -s 0 -d 1 -p tcp -e 576 -c 0 -i 17 -a 0 -x {0.0 3.0 4289 ------- null}
h -t 0.2072352 -s 0 -d 1 -p tcp -e 576 -c 0 -i 17 -a 0 -x {0.0 3.0 -1 ------- null}
+ -t 0.2072352 -s 0 -d 1 -p tcp -e 576 -c 0 -i 18 -a 0 -x {0.0 3.0 4825 ------- null}
- -t 0.207696 -s 0 -d 1 -p tcp -e 576 -c 0 -i 18 -a 0 -x {0.0 3.0 4825 ------- null}
h -t 0.207696 -s 0 -d 1 -p tcp -e 576 -c 0 -i 18 -a 0 -x {0.0 3.0 -1 ------- null}
r -t 0.208088 -s 0 -d 1 -p tcp -e 576 -c 0 -i 15 -a 0 -x {0.0 3.0 3217 ------- null}
+ -t 0.208088 -s 1 -d 2 -p tcp -e 576 -c 0 -i 15 -a 0 -x {0.0 3.0 3217 ------- null}
- -t 0.208088 -s 1 -d 2 -p tcp -e 576 -c 0 -i 15 -a 0 -x {0.0 3.0 3217 ------- null}
h -t 0.208088 -s 1 -d 2 -p tcp -e 576 -c 0 -i 15 -a 0 -x {0.0 3.0 -1 ------- null}
r -t 0.2085488 -s 0 -d 1 -p tcp -e 576 -c 0 -i 16 -a 0 -x {0.0 3.0 3753 ------- null}
+ -t 0.2085488 -s 1 -d 2 -p tcp -e 576 -c 0 -i 16 -a 0 -x {0.0 3.0 3753 ------- null}
r -t 0.2114192 -s 2 -d 1 -p ack -e 40 -c 0 -i 14 -a 0 -x {3.0 0.0 1 ------- null}
+ -t 0.2114192 -s 1 -d 0 -p ack -e 40 -c 0 -i 14 -a 0 -x {3.0 0.0 1 ------- null}
- -t 0.2114192 -s 1 -d 0 -p ack -e 40 -c 0 -i 14 -a 0 -x {3.0 0.0 1 ------- null}
h -t 0.2114192 -s 1 -d 0 -p ack -e 40 -c 0 -i 14 -a 0 -x {3.0 0.0 -1 ------- null}
r -t 0.2118432 -s 1 -d 0 -p ack -e 40 -c 0 -i 13 -a 0 -x {3.0 0.0 1 ------- null}
+ -t 0.2118432 -s 0 -d 1 -p tcp -e 576 -c 0 -i 19 -a 0 -x {0.0 3.0 5361 ------- null}
- -t 0.2118432 -s 0 -d 1 -p tcp -e 576 -c 0 -i 19 -a 0 -x {0.0 3.0 5361 ------- null}
h -t 0.2118432 -s 0 -d 1 -p tcp -e 576 -c 0 -i 19 -a 0 -x {0.0 3.0 -1 ------- null}
+ -t 0.2118432 -s 0 -d 1 -p tcp -e 576 -c 0 -i 20 -a 0 -x {0.0 3.0 5897 ------- null}
- -t 0.212304 -s 0 -d 1 -p tcp -e 576 -c 0 -i 20 -a 0 -x {0.0 3.0 5897 ------- null}
h -t 0.212304 -s 0 -d 1 -p tcp -e 576 -c 0 -i 20 -a 0 -x {0.0 3.0 -1 ------- null}
r -t 0.212696 -s 0 -d 1 -p tcp -e 576 -c 0 -i 17 -a 0 -x {0.0 3.0 4289 ------- null}
+ -t 0.212696 -s 1 -d 2 -p tcp -e 576 -c 0 -i 17 -a 0 -x {0.0 3.0 4289 ------- null}
- -t 0.212696 -s 1 -d 2 -p tcp -e 576 -c 0 -i 16 -a 0 -x {0.0 3.0 3753 ------- null}
h -t 0.212696 -s 1 -d 2 -p tcp -e 576 -c 0 -i 16 -a 0 -x {0.0 3.0 -1 ------- null}
r -t 0.2131568 -s 0 -d 1 -p tcp -e 576 -c 0 -i 18 -a 0 -x {0.0 3.0 4825 ------- null}
+ -t 0.2131568 -s 1 -d 2 -p tcp -e 576 -c 0 -i 18 -a 0 -x {0.0 3.0 4825 ------- null}
r -t 0.2164512 -s 1 -d 0 -p ack -e 40 -c 0 -i 14 -a 0 -x {3.0 0.0 1 ------- null}
+ -t 0.2164512 -s 0 -d 1 -p tcp -e 576 -c 0 -i 21 -a 0 -x {0.0 3.0 6433 ------- null}
- -t 0.2164512 -s 0 -d 1 -p tcp -e 576 -c 0 -i 21 -a 0 -x {0.0 3.0 6433 ------- null}
h -t 0.2164512 -s 0 -d 1 -p tcp -e 576 -c 0 -i 21 -a 0 -x {0.0 3.0 -1 ------- null}
+ -t 0.2164512 -s 0 -d 1 -p tcp -e 576 -c 0 -i 22 -a 0 -x {0.0 3.0 6969 ------- null}
- -t 0.216912 -s 0 -d 1 -p tcp -e 576 -c 0 -i 22 -a 0 -x {0.0 3.0 6969 ------- null}
h -t 0.216912 -s 0 -d 1 -p tcp -e 576 -c 0 -i 22 -a 0 -x {0.0 3.0 -1 ------- null}
r -t 0.217304 -s 0 -d 1 -p tcp -e 576 -c 0 -i 19 -a 0 -x {0.0 3.0 5361 ------- null}
+ -t 0.217304 -s 1 -d 2 -p tcp -e 576 -c 0 -i 19 -a 0 -x {0.0 3.0 5361 ------- null}
- -t 0.217304 -s 1 -d 2 -p tcp -e 576 -c 0 -i 17 -a 0 -x {0.0 3.0 4289 ------- null}
h -t 0.217304 -s 1 -d 2 -p tcp -e 576 -c 0 -i 17 -a 0 -x {0.0 3.0 -1 ------- null}
r -t 0.217696 -s 1 -d 2 -p tcp -e 576 -c 0 -i 15 -a 0 -x {0.0 3.0 3217 ------- null}
+ -t 0.217696 -s 2 -d 3 -p tcp -e 576 -c 0 -i 15 -a 0 -x {0.0 3.0 3217 ------- null}
- -t 0.217696 -s 2 -d 3 -p tcp -e 576 -c 0 -i 15 -a 0 -x {0.0 3.0 3217 ------- null}
h -t 0.217696 -s 2 -d 3 -p tcp -e 576 -c 0 -i 15 -a 0 -x {0.0 3.0 -1 ------- null}
r -t 0.2177648 -s 0 -d 1 -p tcp -e 576 -c 0 -i 20 -a 0 -x {0.0 3.0 5897 ------- null}
+ -t 0.2177648 -s 1 -d 2 -p tcp -e 576 -c 0 -i 20 -a 0 -x {0.0 3.0 5897 ------- null}
r -t 0.221912 -s 0 -d 1 -p tcp -e 576 -c 0 -i 21 -a 0 -x {0.0 3.0 6433 ------- null}
+ -t 0.221912 -s 1 -d 2 -p tcp -e 576 -c 0 -i 21 -a 0 -x {0.0 3.0 6433 ------- null}
- -t 0.221912 -s 1 -d 2 -p tcp -e 576 -c 0 -i 18 -a 0 -x {0.0 3.0 4825 ------- null}
h -t 0.221912 -s 1 -d 2 -p tcp -e 576 -c 0 -i 18 -a 0 -x {0.0 3.0 -1 ------- null}
r -t 0.222304 -s 1 -d 2 -p tcp -e 576 -c 0 -i 16 -a 0 -x {0.0 3.0 3753 ------- null}
+ -t 0.222304 -s 2 -d 3 -p tcp -e 576 -c 0 -i 16 -a 0 -x {0.0 3.0 3753 ------- null}
- -t 0.222304 -s 2 -d 3 -p tcp -e 576 -c 0 -i 16 -a 0 -x {0.0 3.0 3753 ------- null}
h -t 0.222304 -s 2 -d 3 -p tcp -e 576 -c 0 -i 16 -a 0 -x {0.0 3.0 -1 ------- null}
r -t 0.2223728 -s 0 -d 1 -p tcp -e 576 -c 0 -i 22 -a 0 -x {0.0 3.0 6969 ------- null}
+ -t 0.2223728 -s 1 -d 2 -p tcp -e 576 -c 0 -i 22 -a 0 -x {0.0 3.0 6969 ------- null}
r -t 0.2231568 -s 2 -d 3 -p tcp -e 576 -c 0 -i 15 -a 0 -x {0.0 3.0 3217 ------- null}
+ -t 0.2231568 -s 3 -d 2 -p ack -e 40 -c 0 -i 23 -a 0 -x {3.0 0.0 1 ------- null}
- -t 0.2231568 -s 3 -d 2 -p ack -e 40 -c 0 -i 23 -a 0 -x {3.0 0.0 1 ------- null}
h -t 0.2231568 -s 3 -d 2 -p ack -e 40 -c 0 -i 23 -a 0 -x {3.0 0.0 -1 ------- null}
- -t 0.22652 -s 1 -d 2 -p tcp -e 576 -c 0 -i 19 -a 0 -x {0.0 3.0 5361 ------- null}
h -t 0.22652 -s 1 -d 2 -p tcp -e 576 -c 0 -i 19 -a 0 -x {0.0 3.0 -1 ------- null}
r -t 0.226912 -s 1 -d 2 -p tcp -e 576 -c 0 -i 17 -a 0 -x {0.0 3.0 4289 ------- null}
+ -t 0.226912 -s 2 -d 3 -p tcp -e 576 -c 0 -i 17 -a 0 -x {0.0 3.0 4289 ------- null}
- -t 0.226912 -s 2 -d 3 -p tcp -e 576 -c 0 -i 17 -a 0 -x {0.0 3.0 4289 ------- null}
h -t 0.226912 -s 2 -d 3 -p tcp -e 576 -c 0 -i 17 -a 0 -x {0.0 3.0 -1 ------- null}
r -t 0.2277648 -s 2 -d 3 -p tcp -e 576 -c 0 -i 16 -a 0 -x {0.0 3.0 3753 ------- null}
+ -t 0.2277648 -s 3 -d 2 -p ack -e 40 -c 0 -i 24 -a 0 -x {3.0 0.0 1 ------- null}
- -t 0.2277648 -s 3 -d 2 -p ack -e 40 -c 0 -i 24 -a 0 -x {3.0 0.0 1 ------- null}
h -t 0.2277648 -s 3 -d 2 -p ack -e 40 -c 0 -i 24 -a 0 -x {3.0 0.0 -1 ------- null}
r -t 0.2281888 -s 3 -d 2 -p ack -e 40 -c 0 -i 23 -a 0 -x {3.0 0.0 1 ------- null}
+ -t 0.2281888 -s 2 -d 1 -p ack -e 40 -c 0 -i 23 -a 0 -x {3.0 0.0 1 ------- null}
- -t 0.2281888 -s 2 -d 1 -p ack -e 40 -c 0 -i 23 -a 0 -x {3.0 0.0 1 ------- null}
h -t 0.2281888 -s 2 -d 1 -p ack -e 40 -c 0 -i 23 -a 0 -x {3.0 0.0 -1 ------- null}
- -t 0.231128 -s 1 -d 2 -p tcp -e 576 -c 0 -i 20 -a 0 -x {0.0 3.0 5897 ------- null}
h -t 0.231128 -s 1 -d 2 -p tcp -e 576 -c 0 -i 20 -a 0 -x {0.0 3.0 -1 ------- null}
r -t 0.23152 -s 1 -d 2 -p tcp -e 576 -c 0 -i 18 -a 0 -x {0.0 3.0 4825 ------- null}
+ -t 0.23152 -s 2 -d 3 -p tcp -e 576 -c 0 -i 18 -a 0 -x {0.0 3.0 4825 ------- null}
- -t 0.23152 -s 2 -d 3 -p tcp -e 576 -c 0 -i 18 -a 0 -x {0.0 3.0 4825 ------- null}
h -t 0.23152 -s 2 -d 3 -p tcp -e 576 -c 0 -i 18 -a 0 -x {0.0 3.0 -1 ------- null}
r -t 0.2323728 -s 2 -d 3 -p tcp -e 576 -c 0 -i 17 -a 0 -x {0.0 3.0 4289 ------- null}
+ -t 0.2323728 -s 3 -d 2 -p ack -e 40 -c 0 -i 25 -a 0 -x {3.0 0.0 1 ------- null}
- -t 0.2323728 -s 3 -d 2 -p ack -e 40 -c 0 -i 25 -a 0 -x {3.0 0.0 1 ------- null}
h -t 0.2323728 -s 3 -d 2 -p ack -e 40 -c 0 -i 25 -a 0 -x {3.0 0.0 -1 ------- null}
r -t 0.2327968 -s 3 -d 2 -p ack -e 40 -c 0 -i 24 -a 0 -x {3.0 0.0 1 ------- null}
+ -t 0.2327968 -s 2 -d 1 -p ack -e 40 -c 0 -i 24 -a 0 -x {3.0 0.0 1 ------- null}
- -t 0.2327968 -s 2 -d 1 -p ack -e 40 -c 0 -i 24 -a 0 -x {3.0 0.0 1 ------- null}
h -t 0.2327968 -s 2 -d 1 -p ack -e 40 -c 0 -i 24 -a 0 -x {3.0 0.0 -1 ------- null}
r -t 0.2335088 -s 2 -d 1 -p ack -e 40 -c 0 -i 23 -a 0 -x {3.0 0.0 1 ------- null}
+ -t 0.2335088 -s 1 -d 0 -p ack -e 40 -c 0 -i 23 -a 0 -x {3.0 0.0 1 ------- null}
- -t 0.2335088 -s 1 -d 0 -p ack -e 40 -c 0 -i 23 -a 0 -x {3.0 0.0 1 ------- null}
h -t 0.2335088 -s 1 -d 0 -p ack -e 40 -c 0 -i 23 -a 0 -x {3.0 0.0 -1 ------- null}
- -t 0.235736 -s 1 -d 2 -p tcp -e 576 -c 0 -i 21 -a 0 -x {0.0 3.0 6433 ------- null}
h -t 0.235736 -s 1 -d 2 -p tcp -e 576 -c 0 -i 21 -a 0 -x {0.0 3.0 -1 ------- null}
r -t 0.236128 -s 1 -d 2 -p tcp -e 576 -c 0 -i 19 -a 0 -x {0.0 3.0 5361 ------- null}
+ -t 0.236128 -s 2 -d 3 -p tcp -e 576 -c 0 -i 19 -a 0 -x {0.0 3.0 5361 ------- null}
- -t 0.236128 -s 2 -d 3 -p tcp -e 576 -c 0 -i 19 -a 0 -x {0.0 3.0 5361 ------- null}
h -t 0.236128 -s 2 -d 3 -p tcp -e 576 -c 0 -i 19 -a 0 -x {0.0 3.0 -1 ------- null}
r -t 0.2369808 -s 2 -d 3 -p tcp -e 576 -c 0 -i 18 -a 0 -x {0.0 3.0 4825 ------- null}
+ -t 0.2369808 -s 3 -d 2 -p ack -e 40 -c 0 -i 26 -a 0 -x {3.0 0.0 1 ------- null}
- -t 0.2369808 -s 3 -d 2 -p ack -e 40 -c 0 -i 26 -a 0 -x {3.0 0.0 1 ------- null}
h -t 0.2369808 -s 3 -d 2 -p ack -e 40 -c 0 -i 26 -a 0 -x {3.0 0.0 -1 ------- null}
r -t 0.2374048 -s 3 -d 2 -p ack -e 40 -c 0 -i 25 -a 0 -x {3.0 0.0 1 ------- null}
+ -t 0.2374048 -s 2 -d 1 -p ack -e 40 -c 0 -i 25 -a 0 -x {3.0 0.0 1 ------- null}
- -t 0.2374048 -s 2 -d 1 -p ack -e 40 -c 0 -i 25 -a 0 -x {3.0 0.0 1 ------- null}
h -t 0.2374048 -s 2 -d 1 -p ack -e 40 -c 0 -i 25 -a 0 -x {3.0 0.0 -1 ------- null}
r -t 0.2381168 -s 2 -d 1 -p ack -e 40 -c 0 -i 24 -a 0 -x {3.0 0.0 1 ------- null}
+ -t 0.2381168 -s 1 -d 0 -p ack -e 40 -c 0 -i 24 -a 0 -x {3.0 0.0 1 ------- null}
- -t 0.2381168 -s 1 -d 0 -p ack -e 40 -c 0 -i 24 -a 0 -x {3.0 0.0 1 ------- null}
h -t 0.2381168 -s 1 -d 0 -p ack -e 40 -c 0 -i 24 -a 0 -x {3.0 0.0 -1 ------- null}
r -t 0.2385408 -s 1 -d 0 -p ack -e 40 -c 0 -i 23 -a 0 -x {3.0 0.0 1 ------- null}
+ -t 0.2385408 -s 0 -d 1 -p tcp -e 576 -c 0 -i 27 -a 0 -x {0.0 3.0 7505 ------- null}
- -t 0.2385408 -s 0 -d 1 -p tcp -e 576 -c 0 -i 27 -a 0 -x {0.0 3.0 7505 ------- null}
h -t 0.2385408 -s 0 -d 1 -p tcp -e 576 -c 0 -i 27 -a 0 -x {0.0 3.0 -1 ------- null}
+ -t 0.2385408 -s 0 -d 1 -p tcp -e 576 -c 0 -i 28 -a 0 -x {0.0 3.0 8041 ------- null}
- -t 0.2390016 -s 0 -d 1 -p tcp -e 576 -c 0 -i 28 -a 0 -x {0.0 3.0 8041 ------- null}
h -t 0.2390016 -s 0 -d 1 -p tcp -e 576 -c 0 -i 28 -a 0 -x {0.0 3.0 -1 ------- null}
- -t 0.240344 -s 1 -d 2 -p tcp -e 576 -c 0 -i 22 -a 0 -x {0.0 3.0 6969 ------- null}
h -t 0.240344 -s 1 -d 2 -p tcp -e 576 -c 0 -i 22 -a 0 -x {0.0 3.0 -1 ------- null}
r -t 0.240736 -s 1 -d 2 -p tcp -e 576 -c 0 -i 20 -a 0 -x {0.0 3.0 5897 ------- null}
+ -t 0.240736 -s 2 -d 3 -p tcp -e 576 -c 0 -i 20 -a 0 -x {0.0 3.0 5897 ------- null}
- -t 0.240736 -s 2 -d 3 -p tcp -e 576 -c 0 -i 20 -a 0 -x {0.0 3.0 5897 ------- null}
h -t 0.240736 -s 2 -d 3 -p tcp -e 576 -c 0 -i 20 -a 0 -x {0.0 3.0 -1 ------- null}
r -t 0.2415888 -s 2 -d 3 -p tcp -e 576 -c 0 -i 19 -a 0 -x {0.0 3.0 5361 ------- null}
+ -t 0.2415888 -s 3 -d 2 -p ack -e 40 -c 0 -i 29 -a 0 -x {3.0 0.0 1 ------- null}
- -t 0.2415888 -s 3 -d 2 -p ack -e 40 -c 0 -i 29 -a 0 -x {3.0 0.0 1 ------- null}
h -t 0.2415888 -s 3 -d 2 -p ack -e 40 -c 0 -i 29 -a 0 -x {3.0 0.0 -1 ------- null}
r -t 0.2420128 -s 3 -d 2 -p ack -e 40 -c 0 -i 26 -a 0 -x {3.0 0.0 1 ------- null}
+ -t 0.2420128 -s 2 -d 1 -p ack -e 40 -c 0 -i 26 -a 0 -x {3.0 0.0 1 ------- null}
- -t 0.2420128 -s 2 -d 1 -p ack -e 40 -c 0 -i 26 -a 0 -x {3.0 0.0 1 ------- null}
h -t 0.2420128 -s 2 -d 1 -p ack -e 40 -c 0 -i 26 -a 0 -x {3.0 0.0 -1 ------- null}
r -t 0.2427248 -s 2 -d 1 -p ack -e 40 -c 0 -i 25 -a 0 -x {3.0 0.0 1 ------- null}
+ -t 0.2427248 -s 1 -d 0 -p ack -e 40 -c 0 -i 25 -a 0 -x {3.0 0.0 1 ------- null}
- -t 0.2427248 -s 1 -d 0 -p ack -e 40 -c 0 -i 25 -a 0 -x {3.0 0.0 1 ------- null}
h -t 0.2427248 -s 1 -d 0 -p ack -e 40 -c 0 -i 25 -a 0 -x {3.0 0.0 -1 ------- null}
r -t 0.2431488 -s 1 -d 0 -p ack -e 40 -c 0 -i 24 -a 0 -x {3.0 0.0 1 ------- null}
+ -t 0.2431488 -s 0 -d 1 -p tcp -e 576 -c 0 -i 30 -a 0 -x {0.0 3.0 8577 ------- null}
- -t 0.2431488 -s 0 -d 1 -p tcp -e 576 -c 0 -i 30 -a 0 -x {0.0 3.0 8577 ------- null}
h -t 0.2431488 -s 0 -d 1 -p tcp -e 576 -c 0 -i 30 -a 0 -x {0.0 3.0 -1 ------- null}
+ -t 0.2431488 -s 0 -d 1 -p tcp -e 576 -c 0 -i 31 -a 0 -x {0.0 3.0 9113 ------- null}
- -t 0.2436096 -s 0 -d 1 -p tcp -e 576 -c 0 -i 31 -a 0 -x {0.0 3.0 9113 ------- null}
h -t 0.2436096 -s 0 -d 1 -p tcp -e 576 -c 0 -i 31 -a 0 -x {0.0 3.0 -1 ------- null}
r -t 0.2440016 -s 0 -d 1 -p tcp -e 576 -c 0 -i 27 -a 0 -x {0.0 3.0 7505 ------- null}
+ -t 0.2440016 -s 1 -d 2 -p tcp -e 576 -c 0 -i 27 -a 0 -x {0.0 3.0 7505 ------- null}
r -t 0.2444624 -s 0 -d 1 -p tcp -e 576 -c 0 -i 28 -a 0 -x {0.0 3.0 8041 ------- null}
+ -t 0.2444624 -s 1 -d 2 -p tcp -e 576 -c 0 -i 28 -a 0 -x {0.0 3.0 8041 ------- null}
- -t 0.244952 -s 1 -d 2 -p tcp -e 576 -c 0 -i 27 -a 0 -x {0.0 3.0 7505 ------- null}
h -t 0.244952 -s 1 -d 2 -p tcp -e 576 -c 0 -i 27 -a 0 -x {0.0 3.0 -1 ------- null}
r -t 0.245344 -s 1 -d 2 -p tcp -e 576 -c 0 -i 21 -a 0 -x {0.0 3.0 6433 ------- null}
+ -t 0.245344 -s 2 -d 3 -p tcp -e 576 -c 0 -i 21 -a 0 -x {0.0 3.0 6433 ------- null}
- -t 0.245344 -s 2 -d 3 -p tcp -e 576 -c 0 -i 21 -a 0 -x {0.0 3.0 6433 ------- null}
h -t 0.245344 -s 2 -d 3 -p tcp -e 576 -c 0 -i 21 -a 0 -x {0.0 3.0 -1 ------- null}
r -t 0.2461968 -s 2 -d 3 -p tcp -e 576 -c 0 -i 20 -a 0 -x {0.0 3.0 5897 ------- null}
+ -t 0.2461968 -s 3 -d 2 -p ack -e 40 -c 0 -i 32 -a 0 -x {3.0 0.0 1 ------- null}
- -t 0.2461968 -s 3 -d 2 -p ack -e 40 -c 0 -i 32 -a 0 -x {3.0 0.0 1 ------- null}
h -t 0.2461968 -s 3 -d 2 -p ack -e 40 -c 0 -i 32 -a 0 -x {3.0 0.0 -1 ------- null}
r -t 0.2466208 -s 3 -d 2 -p ack -e 40 -c 0 -i 29 -a 0 -x {3.0 0.0 1 ------- null}
+ -t 0.2466208 -s 2 -d 1 -p ack -e 40 -c 0 -i 29 -a 0 -x {3.0 0.0 1 ------- null}
- -t 0.2466208 -s 2 -d 1 -p ack -e 40 -c 0 -i 29 -a 0 -x {3.0 0.0 1 ------- null}
h -t 0.2466208 -s 2 -d 1 -p ack -e 40 -c 0 -i 29 -a 0 -x {3.0 0.0 -1 ------- null}
r -t 0.2473328 -s 2 -d 1 -p ack -e 40 -c 0 -i 26 -a 0 -x {3.0 0.0 1 ------- null}
+ -t 0.2473328 -s 1 -d 0 -p ack -e 40 -c 0 -i 26 -a 0 -x {3.0 0.0 1 ------- null}
- -t 0.2473328 -s 1 -d 0 -p ack -e 40 -c 0 -i 26 -a 0 -x {3.0 0.0 1 ------- null}
h -t 0.2473328 -s 1 -d 0 -p ack -e 40 -c 0 -i 26 -a 0 -x {3.0 0.0 -1 ------- null}
r -t 0.2477568 -s 1 -d 0 -p ack -e 40 -c 0 -i 25 -a 0 -x {3.0 0.0 1 ------- null}
+ -t 0.2477568 -s 0 -d 1 -p tcp -e 576 -c 0 -i 33 -a 0 -x {0.0 3.0 9649 ------- null}
- -t 0.2477568 -s 0 -d 1 -p tcp -e 576 -c 0 -i 33 -a 0 -x {0.0 3.0 9649 ------- null}
h -t 0.2477568 -s 0 -d 1 -p tcp -e 576 -c 0 -i 33 -a 0 -x {0.0 3.0 -1 ------- null}
+ -t 0.2477568 -s 0 -d 1 -p tcp -e 576 -c 0 -i 34 -a 0 -x {0.0 3.0 10185 ------- null}
- -t 0.2482176 -s 0 -d 1 -p tcp -e 576 -c 0 -i 34 -a 0 -x {0.0 3.0 10185 ------- null}
h -t 0.2482176 -s 0 -d 1 -p tcp -e 576 -c 0 -i 34 -a 0 -x {0.0 3.0 -1 ------- null}
r -t 0.2486096 -s 0 -d 1 -p tcp -e 576 -c 0 -i 30 -a 0 -x {0.0 3.0 8577 ------- null}
+ -t 0.2486096 -s 1 -d 2 -p tcp -e 576 -c 0 -i 30 -a 0 -x {0.0 3.0 8577 ------- null}