+ 0.1 0 8 tcp 40 ------- 1 0.0 4.0 0 0
- 0.1 0 8 tcp 40 ------- 1 0.0 4.0 0 0
r 0.110032 0 8 tcp 40 ------- 1 0.0 4.0 0 0
+ 0.110032 8 9 tcp 40 ------- 1 0.0 4.0 0 0
- 0.110032 8 9 tcp 40 ------- 1 0.0 4.0 0 0
r 0.120352 8 9 tcp 40 ------- 1 0.0 4.0 0 0
+ 0.120352 9 10 tcp 40 ------- 1 0.0 4.0 0 0
- 0.120352 9 10 tcp 40 ------- 1 0.0 4.0 0 0
r 0.130672 9 10 tcp 40 ------- 1 0.0 4.0 0 0
+ 0.130672 10 4 tcp 40 ------- 1 0.0 4.0 0 0
- 0.130672 10 4 tcp 40 ------- 1 0.0 4.0 0 0
r 0.140704 10 4 tcp 40 ------- 1 0.0 4.0 0 0
+ 0.140704 4 10 ack 40 ------- 1 4.0 0.0 0 1
- 0.140704 4 10 ack 40 ------- 1 4.0 0.0 0 1
r 0.150736 4 10 ack 40 ------- 1 4.0 0.0 0 1
+ 0.150736 10 9 ack 40 ------- 1 4.0 0.0 0 1
- 0.150736 10 9 ack 40 ------- 1 4.0 0.0 0 1
r 0.161056 10 9 ack 40 ------- 1 4.0 0.0 0 1
+ 0.161056 9 8 ack 40 ------- 1 4.0 0.0 0 1
- 0.161056 9 8 ack 40 ------- 1 4.0 0.0 0 1
r 0.171376 9 8 ack 40 ------- 1 4.0 0.0 0 1
+ 0.171376 8 0 ack 40 ------- 1 4.0 0.0 0 1
- 0.171376 8 0 ack 40 ------- 1 4.0 0.0 0 1
r 0.181408 8 0 ack 40 ------- 1 4.0 0.0 0 1
+ 0.181408 0 8 tcp 40 ------- 1 0.0 4.0 1 2
- 0.181408 0 8 tcp 40 ------- 1 0.0 4.0 1 2
+ 0.181408 0 8 tcp 576 ------- 1 0.0 4.0 1 3
+ 0.181408 0 8 tcp 576 ------- 1 0.0 4.0 537 4
- 0.18144 0 8 tcp 576 ------- 1 0.0 4.0 1 3
- 0.181901 0 8 tcp 576 ------- 1 0.0 4.0 537 4
r 0.19144 0 8 tcp 40 ------- 1 0.0 4.0 1 2
+ 0.19144 8 9 tcp 40 ------- 1 0.0 4.0 1 2
- 0.19144 8 9 tcp 40 ------- 1 0.0 4.0 1 2
r 0.191901 0 8 tcp 576 ------- 1 0.0 4.0 1 3
+ 0.191901 8 9 tcp 576 ------- 1 0.0 4.0 1 3
- 0.191901 8 9 tcp 576 ------- 1 0.0 4.0 1 3
r 0.192362 0 8 tcp 576 ------- 1 0.0 4.0 537 4
+ 0.192362 8 9 tcp 576 ------- 1 0.0 4.0 537 4
- 0.196509 8 9 tcp 576 ------- 1 0.0 4.0 537 4
r 0.20176 8 9 tcp 40 ------- 1 0.0 4.0 1 2
+ 0.20176 9 10 tcp 40 ------- 1 0.0 4.0 1 2
- 0.20176 9 10 tcp 40 ------- 1 0.0 4.0 1 2
r 0.206509 8 9 tcp 576 ------- 1 0.0 4.0 1 3
+ 0.206509 9 10 tcp 576 ------- 1 0.0 4.0 1 3
- 0.206509 9 10 tcp 576 ------- 1 0.0 4.0 1 3
r 0.211117 8 9 tcp 576 ------- 1 0.0 4.0 537 4
+ 0.211117 9 10 tcp 576 ------- 1 0.0 4.0 537 4
- 0.211117 9 10 tcp 576 ------- 1 0.0 4.0 537 4
r 0.21208 9 10 tcp 40 ------- 1 0.0 4.0 1 2
+ 0.21208 10 4 tcp 40 ------- 1 0.0 4.0 1 2
- 0.21208 10 4 tcp 40 ------- 1 0.0 4.0 1 2
r 0.221117 9 10 tcp 576 ------- 1 0.0 4.0 1 3
+ 0.221117 10 4 tcp 576 ------- 1 0.0 4.0 1 3
- 0.221117 10 4 tcp 576 ------- 1 0.0 4.0 1 3
r 0.222112 10 4 tcp 40 ------- 1 0.0 4.0 1 2
r 0.225725 9 10 tcp 576 ------- 1 0.0 4.0 537 4
+ 0.225725 10 4 tcp 576 ------- 1 0.0 4.0 537 4
- 0.225725 10 4 tcp 576 ------- 1 0.0 4.0 537 4
r 0.231578 10 4 tcp 576 ------- 1 0.0 4.0 1 3
+ 0.231578 4 10 ack 40 ------- 1 4.0 0.0 1 5
- 0.231578 4 10 ack 40 ------- 1 4.0 0.0 1 5
r 0.236186 10 4 tcp 576 ------- 1 0.0 4.0 537 4
+ 0.236186 4 10 ack 40 ------- 1 4.0 0.0 1 6
- 0.236186 4 10 ack 40 ------- 1 4.0 0.0 1 6
r 0.24161 4 10 ack 40 ------- 1 4.0 0.0 1 5
+ 0.24161 10 9 ack 40 ------- 1 4.0 0.0 1 5
- 0.24161 10 9 ack 40 ------- 1 4.0 0.0 1 5
r 0.246218 4 10 ack 40 ------- 1 4.0 0.0 1 6
+ 0.246218 10 9 ack 40 ------- 1 4.0 0.0 1 6
- 0.246218 10 9 ack 40 ------- 1 4.0 0.0 1 6
r 0.25193 10 9 ack 40 ------- 1 4.0 0.0 1 5
+ 0.25193 9 8 ack 40 ------- 1 4.0 0.0 1 5
- 0.25193 9 8 ack 40 ------- 1 4.0 0.0 1 5
r 0.256538 10 9 ack 40 ------- 1 4.0 0.0 1 6
+ 0.256538 9 8 ack 40 ------- 1 4.0 0.0 1 6
- 0.256538 9 8 ack 40 ------- 1 4.0 0.0 1 6
r 0.26225 9 8 ack 40 ------- 1 4.0 0.0 1 5
+ 0.26225 8 0 ack 40 ------- 1 4.0 0.0 1 5
- 0.26225 8 0 ack 40 ------- 1 4.0 0.0 1 5
r 0.266858 9 8 ack 40 ------- 1 4.0 0.0 1 6
+ 0.266858 8 0 ack 40 ------- 1 4.0 0.0 1 6
- 0.266858 8 0 ack 40 ------- 1 4.0 0.0 1 6
r 0.272282 8 0 ack 40 ------- 1 4.0 0.0 1 5
+ 0.272282 0 8 tcp 576 ------- 1 0.0 4.0 1073 7
- 0.272282 0 8 tcp 576 ------- 1 0.0 4.0 1073 7
+ 0.272282 0 8 tcp 576 ------- 1 0.0 4.0 1609 8
- 0.272742 0 8 tcp 576 ------- 1 0.0 4.0 1609 8
r 0.27689 8 0 ack 40 ------- 1 4.0 0.0 1 6
+ 0.27689 0 8 tcp 576 ------- 1 0.0 4.0 2145 9
- 0.27689 0 8 tcp 576 ------- 1 0.0 4.0 2145 9
+ 0.27689 0 8 tcp 576 ------- 1 0.0 4.0 2681 10
- 0.27735 0 8 tcp 576 ------- 1 0.0 4.0 2681 10
r 0.282742 0 8 tcp 576 ------- 1 0.0 4.0 1073 7
+ 0.282742 8 9 tcp 576 ------- 1 0.0 4.0 1073 7
- 0.282742 8 9 tcp 576 ------- 1 0.0 4.0 1073 7
r 0.283203 0 8 tcp 576 ------- 1 0.0 4.0 1609 8
+ 0.283203 8 9 tcp 576 ------- 1 0.0 4.0 1609 8
r 0.28735 0 8 tcp 576 ------- 1 0.0 4.0 2145 9
+ 0.28735 8 9 tcp 576 ------- 1 0.0 4.0 2145 9
- 0.28735 8 9 tcp 576 ------- 1 0.0 4.0 1609 8
r 0.287811 0 8 tcp 576 ------- 1 0.0 4.0 2681 10
+ 0.287811 8 9 tcp 576 ------- 1 0.0 4.0 2681 10
- 0.291958 8 9 tcp 576 ------- 1 0.0 4.0 2145 9
- 0.296566 8 9 tcp 576 ------- 1 0.0 4.0 2681 10
r 0.29735 8 9 tcp 576 ------- 1 0.0 4.0 1073 7
+ 0.29735 9 10 tcp 576 ------- 1 0.0 4.0 1073 7
- 0.29735 9 10 tcp 576 ------- 1 0.0 4.0 1073 7
r 0.301958 8 9 tcp 576 ------- 1 0.0 4.0 1609 8
+ 0.301958 9 10 tcp 576 ------- 1 0.0 4.0 1609 8
- 0.301958 9 10 tcp 576 ------- 1 0.0 4.0 1609 8
r 0.306566 8 9 tcp 576 ------- 1 0.0 4.0 2145 9
+ 0.306566 9 10 tcp 576 ------- 1 0.0 4.0 2145 9
- 0.306566 9 10 tcp 576 ------- 1 0.0 4.0 2145 9
r 0.311174 8 9 tcp 576 ------- 1 0.0 4.0 2681 10
+ 0.311174 9 10 tcp 576 ------- 1 0.0 4.0 2681 10
- 0.311174 9 10 tcp 576 ------- 1 0.0 4.0 2681 10
r 0.311958 9 10 tcp 576 ------- 1 0.0 4.0 1073 7
+ 0.311958 10 4 tcp 576 ------- 1 0.0 4.0 1073 7
- 0.311958 10 4 tcp 576 ------- 1 0.0 4.0 1073 7
r 0.316566 9 10 tcp 576 ------- 1 0.0 4.0 1609 8
+ 0.316566 10 4 tcp 576 ------- 1 0.0 4.0 1609 8
- 0.316566 10 4 tcp 576 ------- 1 0.0 4.0 1609 8
r 0.321174 9 10 tcp 576 ------- 1 0.0 4.0 2145 9
+ 0.321174 10 4 tcp 576 ------- 1 0.0 4.0 2145 9
- 0.321174 10 4 tcp 576 ------- 1 0.0 4.0 2145 9
r 0.322419 10 4 tcp 576 ------- 1 0.0 4.0 1073 7
+ 0.322419 4 10 ack 40 ------- 1 4.0 0.0 1 11
- 0.322419 4 10 ack 40 ------- 1 4.0 0.0 1 11
r 0.325782 9 10 tcp 576 ------- 1 0.0 4.0 2681 10
+ 0.325782 10 4 tcp 576 ------- 1 0.0 4.0 2681 10
- 0.325782 10 4 tcp 576 ------- 1 0.0 4.0 2681 10
r 0.327027 10 4 tcp 576 ------- 1 0.0 4.0 1609 8
+ 0.327027 4 10 ack 40 ------- 1 4.0 0.0 1 12
- 0.327027 4 10 ack 40 ------- 1 4.0 0.0 1 12
r 0.331635 10 4 tcp 576 ------- 1 0.0 4.0 2145 9
+ 0.331635 4 10 ack 40 ------- 1 4.0 0.0 1 13
- 0.331635 4 10 ack 40 ------- 1 4.0 0.0 1 13
r 0.332451 4 10 ack 40 ------- 1 4.0 0.0 1 11
+ 0.332451 10 9 ack 40 ------- 1 4.0 0.0 1 11
- 0.332451 10 9 ack 40 ------- 1 4.0 0.0 1 11
r 0.336243 10 4 tcp 576 ------- 1 0.0 4.0 2681 10
+ 0.336243 4 10 ack 40 ------- 1 4.0 0.0 1 14
- 0.336243 4 10 ack 40 ------- 1 4.0 0.0 1 14
r 0.337059 4 10 ack 40 ------- 1 4.0 0.0 1 12
+ 0.337059 10 9 ack 40 ------- 1 4.0 0.0 1 12
- 0.337059 10 9 ack 40 ------- 1 4.0 0.0 1 12
r 0.341667 4 10 ack 40 ------- 1 4.0 0.0 1 13
+ 0.341667 10 9 ack 40 ------- 1 4.0 0.0 1 13
- 0.341667 10 9 ack 40 ------- 1 4.0 0.0 1 13
r 0.342771 10 9 ack 40 ------- 1 4.0 0.0 1 11
+ 0.342771 9 8 ack 40 ------- 1 4.0 0.0 1 11
- 0.342771 9 8 ack 40 ------- 1 4.0 0.0 1 11
r 0.346275 4 10 ack 40 ------- 1 4.0 0.0 1 14
+ 0.346275 10 9 ack 40 ------- 1 4.0 0.0 1 14
- 0.346275 10 9 ack 40 ------- 1 4.0 0.0 1 14
r 0.347379 10 9 ack 40 ------- 1 4.0 0.0 1 12
+ 0.347379 9 8 ack 40 ------- 1 4.0 0.0 1 12
- 0.347379 9 8 ack 40 ------- 1 4.0 0.0 1 12
r 0.351987 10 9 ack 40 ------- 1 4.0 0.0 1 13
+ 0.351987 9 8 ack 40 ------- 1 4.0 0.0 1 13
- 0.351987 9 8 ack 40 ------- 1 4.0 0.0 1 13
r 0.353091 9 8 ack 40 ------- 1 4.0 0.0 1 11
+ 0.353091 8 0 ack 40 ------- 1 4.0 0.0 1 11
- 0.353091 8 0 ack 40 ------- 1 4.0 0.0 1 11
r 0.356595 10 9 ack 40 ------- 1 4.0 0.0 1 14
+ 0.356595 9 8 ack 40 ------- 1 4.0 0.0 1 14
- 0.356595 9 8 ack 40 ------- 1 4.0 0.0 1 14
r 0.357699 9 8 ack 40 ------- 1 4.0 0.0 1 12
+ 0.357699 8 0 ack 40 ------- 1 4.0 0.0 1 12
- 0.357699 8 0 ack 40 ------- 1 4.0 0.0 1 12
r 0.362307 9 8 ack 40 ------- 1 4.0 0.0 1 13
+ 0.362307 8 0 ack 40 ------- 1 4.0 0.0 1 13
- 0.362307 8 0 ack 40 ------- 1 4.0 0.0 1 13
r 0.363123 8 0 ack 40 ------- 1 4.0 0.0 1 11
+ 0.363123 0 8 tcp 576 ------- 1 0.0 4.0 3217 15
- 0.363123 0 8 tcp 576 ------- 1 0.0 4.0 3217 15
+ 0.363123 0 8 tcp 576 ------- 1 0.0 4.0 3753 16
- 0.363584 0 8 tcp 576 ------- 1 0.0 4.0 3753 16
r 0.366915 9 8 ack 40 ------- 1 4.0 0.0 1 14
+ 0.366915 8 0 ack 40 ------- 1 4.0 0.0 1 14
- 0.366915 8 0 ack 40 ------- 1 4.0 0.0 1 14
r 0.367731 8 0 ack 40 ------- 1 4.0 0.0 1 12
+ 0.367731 0 8 tcp 576 ------- 1 0.0 4.0 4289 17
- 0.367731 0 8 tcp 576 ------- 1 0.0 4.0 4289 17
+ 0.367731 0 8 tcp 576 ------- 1 0.0 4.0 4825 18
- 0.368192 0 8 tcp 576 ------- 1 0.0 4.0 4825 18
r 0.372339 8 0 ack 40 ------- 1 4.0 0.0 1 13
+ 0.372339 0 8 tcp 576 ------- 1 0.0 4.0 5361 19
- 0.372339 0 8 tcp 576 ------- 1 0.0 4.0 5361 19
+ 0.372339 0 8 tcp 576 ------- 1 0.0 4.0 5897 20
- 0.3728 0 8 tcp 576 ------- 1 0.0 4.0 5897 20
r 0.373584 0 8 tcp 576 ------- 1 0.0 4.0 3217 15
+ 0.373584 8 9 tcp 576 ------- 1 0.0 4.0 3217 15
- 0.373584 8 9 tcp 576 ------- 1 0.0 4.0 3217 15
r 0.374045 0 8 tcp 576 ------- 1 0.0 4.0 3753 16
+ 0.374045 8 9 tcp 576 ------- 1 0.0 4.0 3753 16
r 0.376947 8 0 ack 40 ------- 1 4.0 0.0 1 14
+ 0.376947 0 8 tcp 576 ------- 1 0.0 4.0 6433 21
- 0.376947 0 8 tcp 576 ------- 1 0.0 4.0 6433 21
+ 0.376947 0 8 tcp 576 ------- 1 0.0 4.0 6969 22
- 0.377408 0 8 tcp 576 ------- 1 0.0 4.0 6969 22
r 0.378192 0 8 tcp 576 ------- 1 0.0 4.0 4289 17
+ 0.378192 8 9 tcp 576 ------- 1 0.0 4.0 4289 17
- 0.378192 8 9 tcp 576 ------- 1 0.0 4.0 3753 16
r 0.378653 0 8 tcp 576 ------- 1 0.0 4.0 4825 18
+ 0.378653 8 9 tcp 576 ------- 1 0.0 4.0 4825 18
r 0.3828 0 8 tcp 576 ------- 1 0.0 4.0 5361 19
+ 0.3828 8 9 tcp 576 ------- 1 0.0 4.0 5361 19
- 0.3828 8 9 tcp 576 ------- 1 0.0 4.0 4289 17
r 0.383261 0 8 tcp 576 ------- 1 0.0 4.0 5897 20
+ 0.383261 8 9 tcp 576 ------- 1 0.0 4.0 5897 20
r 0.387408 0 8 tcp 576 ------- 1 0.0 4.0 6433 21
+ 0.387408 8 9 tcp 576 ------- 1 0.0 4.0 6433 21
- 0.387408 8 9 tcp 576 ------- 1 0.0 4.0 4825 18
r 0.387869 0 8 tcp 576 ------- 1 0.0 4.0 6969 22
+ 0.387869 8 9 tcp 576 ------- 1 0.0 4.0 6969 22
r 0.388192 8 9 tcp 576 ------- 1 0.0 4.0 3217 15
+ 0.388192 9 10 tcp 576 ------- 1 0.0 4.0 3217 15
- 0.388192 9 10 tcp 576 ------- 1 0.0 4.0 3217 15
- 0.392016 8 9 tcp 576 ------- 1 0.0 4.0 5361 19
r 0.3928 8 9 tcp 576 ------- 1 0.0 4.0 3753 16
+ 0.3928 9 10 tcp 576 ------- 1 0.0 4.0 3753 16
- 0.3928 9 10 tcp 576 ------- 1 0.0 4.0 3753 16
- 0.396624 8 9 tcp 576 ------- 1 0.0 4.0 5897 20
r 0.397408 8 9 tcp 576 ------- 1 0.0 4.0 4289 17
+ 0.397408 9 10 tcp 576 ------- 1 0.0 4.0 4289 17
- 0.397408 9 10 tcp 576 ------- 1 0.0 4.0 4289 17
- 0.401232 8 9 tcp 576 ------- 1 0.0 4.0 6433 21
r 0.402016 8 9 tcp 576 ------- 1 0.0 4.0 4825 18
+ 0.402016 9 10 tcp 576 ------- 1 0.0 4.0 4825 18
- 0.402016 9 10 tcp 576 ------- 1 0.0 4.0 4825 18
r 0.4028 9 10 tcp 576 ------- 1 0.0 4.0 3217 15
+ 0.4028 10 4 tcp 576 ------- 1 0.0 4.0 3217 15
- 0.4028 10 4 tcp 576 ------- 1 0.0 4.0 3217 15
- 0.40584 8 9 tcp 576 ------- 1 0.0 4.0 6969 22
r 0.406624 8 9 tcp 576 ------- 1 0.0 4.0 5361 19
+ 0.406624 9 10 tcp 576 ------- 1 0.0 4.0 5361 19
- 0.406624 9 10 tcp 576 ------- 1 0.0 4.0 5361 19
r 0.407408 9 10 tcp 576 ------- 1 0.0 4.0 3753 16
+ 0.407408 10 4 tcp 576 ------- 1 0.0 4.0 3753 16
- 0.407408 10 4 tcp 576 ------- 1 0.0 4.0 3753 16
r 0.411232 8 9 tcp 576 ------- 1 0.0 4.0 5897 20
+ 0.411232 9 10 tcp 576 ------- 1 0.0 4.0 5897 20
- 0.411232 9 10 tcp 576 ------- 1 0.0 4.0 5897 20
r 0.412016 9 10 tcp 576 ------- 1 0.0 4.0 4289 17
+ 0.412016 10 4 tcp 576 ------- 1 0.0 4.0 4289 17
- 0.412016 10 4 tcp 576 ------- 1 0.0 4.0 4289 17
r 0.413261 10 4 tcp 576 ------- 1 0.0 4.0 3217 15
+ 0.413261 4 10 ack 40 ------- 1 4.0 0.0 1 23
- 0.413261 4 10 ack 40 ------- 1 4.0 0.0 1 23
r 0.41584 8 9 tcp 576 ------- 1 0.0 4.0 6433 21
+ 0.41584 9 10 tcp 576 ------- 1 0.0 4.0 6433 21
- 0.41584 9 10 tcp 576 ------- 1 0.0 4.0 6433 21
r 0.416624 9 10 tcp 576 ------- 1 0.0 4.0 4825 18
+ 0.416624 10 4 tcp 576 ------- 1 0.0 4.0 4825 18
- 0.416624 10 4 tcp 576 ------- 1 0.0 4.0 4825 18
r 0.417869 10 4 tcp 576 ------- 1 0.0 4.0 3753 16
+ 0.417869 4 10 ack 40 ------- 1 4.0 0.0 1 24
- 0.417869 4 10 ack 40 ------- 1 4.0 0.0 1 24
r 0.420448 8 9 tcp 576 ------- 1 0.0 4.0 6969 22
+ 0.420448 9 10 tcp 576 ------- 1 0.0 4.0 6969 22
- 0.420448 9 10 tcp 576 ------- 1 0.0 4.0 6969 22
r 0.421232 9 10 tcp 576 ------- 1 0.0 4.0 5361 19
+ 0.421232 10 4 tcp 576 ------- 1 0.0 4.0 5361 19
- 0.421232 10 4 tcp 576 ------- 1 0.0 4.0 5361 19
r 0.422477 10 4 tcp 576 ------- 1 0.0 4.0 4289 17
+ 0.422477 4 10 ack 40 ------- 1 4.0 0.0 1 25
- 0.422477 4 10 ack 40 ------- 1 4.0 0.0 1 25
r 0.423293 4 10 ack 40 ------- 1 4.0 0.0 1 23
+ 0.423293 10 9 ack 40 ------- 1 4.0 0.0 1 23
- 0.423293 10 9 ack 40 ------- 1 4.0 0.0 1 23
r 0.42584 9 10 tcp 576 ------- 1 0.0 4.0 5897 20
+ 0.42584 10 4 tcp 576 ------- 1 0.0 4.0 5897 20
- 0.42584 10 4 tcp 576 ------- 1 0.0 4.0 5897 20
r 0.427085 10 4 tcp 576 ------- 1 0.0 4.0 4825 18
+ 0.427085 4 10 ack 40 ------- 1 4.0 0.0 1 26
- 0.427085 4 10 ack 40 ------- 1 4.0 0.0 1 26
r 0.427901 4 10 ack 40 ------- 1 4.0 0.0 1 24
+ 0.427901 10 9 ack 40 ------- 1 4.0 0.0 1 24
- 0.427901 10 9 ack 40 ------- 1 4.0 0.0 1 24
r 0.430448 9 10 tcp 576 ------- 1 0.0 4.0 6433 21
+ 0.430448 10 4 tcp 576 ------- 1 0.0 4.0 6433 21
- 0.430448 10 4 tcp 576 ------- 1 0.0 4.0 6433 21
r 0.431693 10 4 tcp 576 ------- 1 0.0 4.0 5361 19
+ 0.431693 4 10 ack 40 ------- 1 4.0 0.0 1 27
- 0.431693 4 10 ack 40 ------- 1 4.0 0.0 1 27
r 0.432509 4 10 ack 40 ------- 1 4.0 0.0 1 25
+ 0.432509 10 9 ack 40 ------- 1 4.0 0.0 1 25
- 0.432509 10 9 ack 40 ------- 1 4.0 0.0 1 25
r 0.433613 10 9 ack 40 ------- 1 4.0 0.0 1 23
+ 0.433613 9 8 ack 40 ------- 1 4.0 0.0 1 23
- 0.433613 9 8 ack 40 ------- 1 4.0 0.0 1 23
r 0.435056 9 10 tcp 576 ------- 1 0.0 4.0 6969 22
+ 0.435056 10 4 tcp 576 ------- 1 0.0 4.0 6969 22
- 0.435056 10 4 tcp 576 ------- 1 0.0 4.0 6969 22
r 0.436301 10 4 tcp 576 ------- 1 0.0 4.0 5897 20
+ 0.436301 4 10 ack 40 ------- 1 4.0 0.0 1 28
- 0.436301 4 10 ack 40 ------- 1 4.0 0.0 1 28
r 0.437117 4 10 ack 40 ------- 1 4.0 0.0 1 26
+ 0.437117 10 9 ack 40 ------- 1 4.0 0.0 1 26
- 0.437117 10 9 ack 40 ------- 1 4.0 0.0 1 26
r 0.438221 10 9 ack 40 ------- 1 4.0 0.0 1 24
+ 0.438221 9 8 ack 40 ------- 1 4.0 0.0 1 24
- 0.438221 9 8 ack 40 ------- 1 4.0 0.0 1 24
r 0.440909 10 4 tcp 576 ------- 1 0.0 4.0 6433 21
+ 0.440909 4 10 ack 40 ------- 1 4.0 0.0 1 29
- 0.440909 4 10 ack 40 ------- 1 4.0 0.0 1 29
r 0.441725 4 10 ack 40 ------- 1 4.0 0.0 1 27
+ 0.441725 10 9 ack 40 ------- 1 4.0 0.0 1 27
- 0.441725 10 9 ack 40 ------- 1 4.0 0.0 1 27
r 0.442829 10 9 ack 40 ------- 1 4.0 0.0 1 25
+ 0.442829 9 8 ack 40 ------- 1 4.0 0.0 1 25
- 0.442829 9 8 ack 40 ------- 1 4.0 0.0 1 25
r 0.443933 9 8 ack 40 ------- 1 4.0 0.0 1 23
+ 0.443933 8 0 ack 40 ------- 1 4.0 0.0 1 23
- 0.443933 8 0 ack 40 ------- 1 4.0 0.0 1 23
r 0.445517 10 4 tcp 576 ------- 1 0.0 4.0 6969 22
+ 0.445517 4 10 ack 40 ------- 1 4.0 0.0 1 30
- 0.445517 4 10 ack 40 ------- 1 4.0 0.0 1 30
r 0.446333 4 10 ack 40 ------- 1 4.0 0.0 1 28
+ 0.446333 10 9 ack 40 ------- 1 4.0 0.0 1 28
- 0.446333 10 9 ack 40 ------- 1 4.0 0.0 1 28
r 0.447437 10 9 ack 40 ------- 1 4.0 0.0 1 26
+ 0.447437 9 8 ack 40 ------- 1 4.0 0.0 1 26
- 0.447437 9 8 ack 40 ------- 1 4.0 0.0 1 26
r 0.448541 9 8 ack 40 ------- 1 4.0 0.0 1 24
+ 0.448541 8 0 ack 40 ------- 1 4.0 0.0 1 24
- 0.448541 8 0 ack 40 ------- 1 4.0 0.0 1 24
r 0.450941 4 10 ack 40 ------- 1 4.0 0.0 1 29
+ 0.450941 10 9 ack 40 ------- 1 4.0 0.0 1 29
- 0.450941 10 9 ack 40 ------- 1 4.0 0.0 1 29
r 0.452045 10 9 ack 40 ------- 1 4.0 0.0 1 27
+ 0.452045 9 8 ack 40 ------- 1 4.0 0.0 1 27
- 0.452045 9 8 ack 40 ------- 1 4.0 0.0 1 27
r 0.453149 9 8 ack 40 ------- 1 4.0 0.0 1 25
+ 0.453149 8 0 ack 40 ------- 1 4.0 0.0 1 25
- 0.453149 8 0 ack 40 ------- 1 4.0 0.0 1 25
r 0.453965 8 0 ack 40 ------- 1 4.0 0.0 1 23
+ 0.453965 0 8 tcp 576 ------- 1 0.0 4.0 7505 31
- 0.453965 0 8 tcp 576 ------- 1 0.0 4.0 7505 31
+ 0.453965 0 8 tcp 576 ------- 1 0.0 4.0 8041 32
- 0.454426 0 8 tcp 576 ------- 1 0.0 4.0 8041 32
r 0.455549 4 10 ack 40 ------- 1 4.0 0.0 1 30
+ 0.455549 10 9 ack 40 ------- 1 4.0 0.0 1 30
- 0.455549 10 9 ack 40 ------- 1 4.0 0.0 1 30
r 0.456653 10 9 ack 40 ------- 1 4.0 0.0 1 28
+ 0.456653 9 8 ack 40 ------- 1 4.0 0.0 1 28
- 0.456653 9 8 ack 40 ------- 1 4.0 0.0 1 28
r 0.457757 9 8 ack 40 ------- 1 4.0 0.0 1 26
+ 0.457757 8 0 ack 40 ------- 1 4.0 0.0 1 26
- 0.457757 8 0 ack 40 ------- 1 4.0 0.0 1 26
r 0.458573 8 0 ack 40 ------- 1 4.0 0.0 1 24
+ 0.458573 0 8 tcp 576 ------- 1 0.0 4.0 8577 33
- 0.458573 0 8 tcp 576 ------- 1 0.0 4.0 8577 33
+ 0.458573 0 8 tcp 576 ------- 1 0.0 4.0 9113 34
- 0.459034 0 8 tcp 576 ------- 1 0.0 4.0 9113 34
r 0.461261 10 9 ack 40 ------- 1 4.0 0.0 1 29
+ 0.461261 9 8 ack 40 ------- 1 4.0 0.0 1 29
- 0.461261 9 8 ack 40 ------- 1 4.0 0.0 1 29
r 0.462365 9 8 ack 40 ------- 1 4.0 0.0 1 27
+ 0.462365 8 0 ack 40 ------- 1 4.0 0.0 1 27
- 0.462365 8 0 ack 40 ------- 1 4.0 0.0 1 27
r 0.463181 8 0 ack 40 ------- 1 4.0 0.0 1 25
+ 0.463181 0 8 tcp 576 ------- 1 0.0 4.0 9649 35
- 0.463181 0 8 tcp 576 ------- 1 0.0 4.0 9649 35
+ 0.463181 0 8 tcp 576 ------- 1 0.0 4.0 10185 36
- 0.463642 0 8 tcp 576 ------- 1 0.0 4.0 10185 36
r 0.464426 0 8 tcp 576 ------- 1 0.0 4.0 7505 31
+ 0.464426 8 9 tcp 576 ------- 1 0.0 4.0 7505 31
- 0.464426 8 9 tcp 576 ------- 1 0.0 4.0 7505 31
r 0.464886 0 8 tcp 576 ------- 1 0.0 4.0 8041 32
+ 0.464886 8 9 tcp 576 ------- 1 0.0 4.0 8041 32
r 0.465869 10 9 ack 40 ------- 1 4.0 0.0 1 30
+ 0.465869 9 8 ack 40 ------- 1 4.0 0.0 1 30
- 0.465869 9 8 ack 40 ------- 1 4.0 0.0 1 30
r 0.466973 9 8 ack 40 ------- 1 4.0 0.0 1 28
+ 0.466973 8 0 ack 40 ------- 1 4.0 0.0 1 28
- 0.466973 8 0 ack 40 ------- 1 4.0 0.0 1 28
r 0.467789 8 0 ack 40 ------- 1 4.0 0.0 1 26
+ 0.467789 0 8 tcp 576 ------- 1 0.0 4.0 10721 37
- 0.467789 0 8 tcp 576 ------- 1 0.0 4.0 10721 37
+ 0.467789 0 8 tcp 576 ------- 1 0.0 4.0 11257 38
- 0.46825 0 8 tcp 576 ------- 1 0.0 4.0 11257 38
r 0.469034 0 8 tcp 576 ------- 1 0.0 4.0 8577 33
+ 0.469034 8 9 tcp 576 ------- 1 0.0 4.0 8577 33
- 0.469034 8 9 tcp 576 ------- 1 0.0 4.0 8041 32
r 0.469494 0 8 tcp 576 ------- 1 0.0 4.0 9113 34
+ 0.469494 8 9 tcp 576 ------- 1 0.0 4.0 9113 34
r 0.471581 9 8 ack 40 ------- 1 4.0 0.0 1 29
+ 0.471581 8 0 ack 40 ------- 1 4.0 0.0 1 29
- 0.471581 8 0 ack 40 ------- 1 4.0 0.0 1 29
r 0.472397 8 0 ack 40 ------- 1 4.0 0.0 1 27
+ 0.472397 0 8 tcp 576 ------- 1 0.0 4.0 11793 39
- 0.472397 0 8 tcp 576 ------- 1 0.0 4.0 11793 39
+ 0.472397 0 8 tcp 576 ------- 1 0.0 4.0 12329 40
- 0.472858 0 8 tcp 576 ------- 1 0.0 4.0 12329 40
r 0.473642 0 8 tcp 576 ------- 1 0.0 4.0 9649 35
+ 0.473642 8 9 tcp 576 ------- 1 0.0 4.0 9649 35
- 0.473642 8 9 tcp 576 ------- 1 0.0 4.0 8577 33
r 0.474102 0 8 tcp 576 ------- 1 0.0 4.0 10185 36
+ 0.474102 8 9 tcp 576 ------- 1 0.0 4.0 10185 36
r 0.476189 9 8 ack 40 ------- 1 4.0 0.0 1 30
+ 0.476189 8 0 ack 40 ------- 1 4.0 0.0 1 30
- 0.476189 8 0 ack 40 ------- 1 4.0 0.0 1 30
r 0.477005 8 0 ack 40 ------- 1 4.0 0.0 1 28
+ 0.477005 0 8 tcp 576 ------- 1 0.0 4.0 12865 41
- 0.477005 0 8 tcp 576 ------- 1 0.0 4.0 12865 41
+ 0.477005 0 8 tcp 576 ------- 1 0.0 4.0 13401 42
- 0.477466 0 8 tcp 576 ------- 1 0.0 4.0 13401 42
r 0.47825 0 8 tcp 576 ------- 1 0.0 4.0 10721 37
+ 0.47825 8 9 tcp 576 ------- 1 0.0 4.0 10721 37
- 0.47825 8 9 tcp 576 ------- 1 0.0 4.0 9113 34
r 0.47871 0 8 tcp 576 ------- 1 0.0 4.0 11257 38
+ 0.47871 8 9 tcp 576 ------- 1 0.0 4.0 11257 38
r 0.479034 8 9 tcp 576 ------- 1 0.0 4.0 7505 31
+ 0.479034 9 10 tcp 576 ------- 1 0.0 4.0 7505 31
- 0.479034 9 10 tcp 576 ------- 1 0.0 4.0 7505 31
r 0.481613 8 0 ack 40 ------- 1 4.0 0.0 1 29
+ 0.481613 0 8 tcp 576 ------- 1 0.0 4.0 13937 43
- 0.481613 0 8 tcp 576 ------- 1 0.0 4.0 13937 43
+ 0.481613 0 8 tcp 576 ------- 1 0.0 4.0 14473 44
- 0.482074 0 8 tcp 576 ------- 1 0.0 4.0 14473 44
r 0.482858 0 8 tcp 576 ------- 1 0.0 4.0 11793 39
+ 0.482858 8 9 tcp 576 ------- 1 0.0 4.0 11793 39
- 0.482858 8 9 tcp 576 ------- 1 0.0 4.0 9649 35
r 0.483318 0 8 tcp 576 ------- 1 0.0 4.0 12329 40
+ 0.483318 8 9 tcp 576 ------- 1 0.0 4.0 12329 40
r 0.483642 8 9 tcp 576 ------- 1 0.0 4.0 8041 32
+ 0.483642 9 10 tcp 576 ------- 1 0.0 4.0 8041 32
- 0.483642 9 10 tcp 576 ------- 1 0.0 4.0 8041 32
r 0.486221 8 0 ack 40 ------- 1 4.0 0.0 1 30
+ 0.486221 0 8 tcp 576 ------- 1 0.0 4.0 15009 45
- 0.486221 0 8 tcp 576 ------- 1 0.0 4.0 15009 45
+ 0.486221 0 8 tcp 576 ------- 1 0.0 4.0 15545 46
- 0.486682 0 8 tcp 576 ------- 1 0.0 4.0 15545 46
r 0.487466 0 8 tcp 576 ------- 1 0.0 4.0 12865 41
+ 0.487466 8 9 tcp 576 ------- 1 0.0 4.0 12865 41
- 0.487466 8 9 tcp 576 ------- 1 0.0 4.0 10185 36
r 0.487926 0 8 tcp 576 ------- 1 0.0 4.0 13401 42
+ 0.487926 8 9 tcp 576 ------- 1 0.0 4.0 13401 42
r 0.48825 8 9 tcp 576 ------- 1 0.0 4.0 8577 33
+ 0.48825 9 10 tcp 576 ------- 1 0.0 4.0 8577 33
- 0.48825 9 10 tcp 576 ------- 1 0.0 4.0 8577 33
r 0.492074 0 8 tcp 576 ------- 1 0.0 4.0 13937 43
+ 0.492074 8 9 tcp 576 ------- 1 0.0 4.0 13937 43
- 0.492074 8 9 tcp 576 ------- 1 0.0 4.0 10721 37
r 0.492534 0 8 tcp 576 ------- 1 0.0 4.0 14473 44
+ 0.492534 8 9 tcp 576 ------- 1 0.0 4.0 14473 44
r 0.492858 8 9 tcp 576 ------- 1 0.0 4.0 9113 34
+ 0.492858 9 10 tcp 576 ------- 1 0.0 4.0 9113 34
- 0.492858 9 10 tcp 576 ------- 1 0.0 4.0 9113 34
r 0.493642 9 10 tcp 576 ------- 1 0.0 4.0 7505 31
+ 0.493642 10 4 tcp 576 ------- 1 0.0 4.0 7505 31
- 0.493642 10 4 tcp 576 ------- 1 0.0 4.0 7505 31
r 0.496682 0 8 tcp 576 ------- 1 0.0 4.0 15009 45
+ 0.496682 8 9 tcp 576 ------- 1 0.0 4.0 15009 45
- 0.496682 8 9 tcp 576 ------- 1 0.0 4.0 11257 38
r 0.497142 0 8 tcp 576 ------- 1 0.0 4.0 15545 46
+ 0.497142 8 9 tcp 576 ------- 1 0.0 4.0 15545 46
r 0.497466 8 9 tcp 576 ------- 1 0.0 4.0 9649 35
+ 0.497466 9 10 tcp 576 ------- 1 0.0 4.0 9649 35
- 0.497466 9 10 tcp 576 ------- 1 0.0 4.0 9649 35
r 0.49825 9 10 tcp 576 ------- 1 0.0 4.0 8041 32
+ 0.49825 10 4 tcp 576 ------- 1 0.0 4.0 8041 32
- 0.49825 10 4 tcp 576 ------- 1 0.0 4.0 8041 32
- 0.50129 8 9 tcp 576 ------- 1 0.0 4.0 11793 39
r 0.502074 8 9 tcp 576 ------- 1 0.0 4.0 10185 36
+ 0.502074 9 10 tcp 576 ------- 1 0.0 4.0 10185 36
- 0.502074 9 10 tcp 576 ------- 1 0.0 4.0 10185 36
r 0.502858 9 10 tcp 576 ------- 1 0.0 4.0 8577 33
+ 0.502858 10 4 tcp 576 ------- 1 0.0 4.0 8577 33
- 0.502858 10 4 tcp 576 ------- 1 0.0 4.0 8577 33
r 0.504102 10 4 tcp 576 ------- 1 0.0 4.0 7505 31
+ 0.504102 4 10 ack 40 ------- 1 4.0 0.0 1 47
- 0.504102 4 10 ack 40 ------- 1 4.0 0.0 1 47
- 0.505898 8 9 tcp 576 ------- 1 0.0 4.0 12329 40
r 0.506682 8 9 tcp 576 ------- 1 0.0 4.0 10721 37
+ 0.506682 9 10 tcp 576 ------- 1 0.0 4.0 10721 37
- 0.506682 9 10 tcp 576 ------- 1 0.0 4.0 10721 37
r 0.507466 9 10 tcp 576 ------- 1 0.0 4.0 9113 34
+ 0.507466 10 4 tcp 576 ------- 1 0.0 4.0 9113 34
- 0.507466 10 4 tcp 576 ------- 1 0.0 4.0 9113 34
r 0.50871 10 4 tcp 576 ------- 1 0.0 4.0 8041 32
+ 0.50871 4 10 ack 40 ------- 1 4.0 0.0 1 48
- 0.50871 4 10 ack 40 ------- 1 4.0 0.0 1 48
- 0.510506 8 9 tcp 576 ------- 1 0.0 4.0 12865 41
r 0.51129 8 9 tcp 576 ------- 1 0.0 4.0 11257 38
+ 0.51129 9 10 tcp 576 ------- 1 0.0 4.0 11257 38
- 0.51129 9 10 tcp 576 ------- 1 0.0 4.0 11257 38
r 0.512074 9 10 tcp 576 ------- 1 0.0 4.0 9649 35
+ 0.512074 10 4 tcp 576 ------- 1 0.0 4.0 9649 35
- 0.512074 10 4 tcp 576 ------- 1 0.0 4.0 9649 35
r 0.513318 10 4 tcp 576 ------- 1 0.0 4.0 8577 33
+ 0.513318 4 10 ack 40 ------- 1 4.0 0.0 1 49
- 0.513318 4 10 ack 40 ------- 1 4.0 0.0 1 49
r 0.514134 4 10 ack 40 ------- 1 4.0 0.0 1 47
+ 0.514134 10 9 ack 40 ------- 1 4.0 0.0 1 47
- 0.514134 10 9 ack 40 ------- 1 4.0 0.0 1 47
- 0.515114 8 9 tcp 576 ------- 1 0.0 4.0 13401 42
r 0.515898 8 9 tcp 576 ------- 1 0.0 4.0 11793 39
+ 0.515898 9 10 tcp 576 ------- 1 0.0 4.0 11793 39
- 0.515898 9 10 tcp 576 ------- 1 0.0 4.0 11793 39
r 0.516682 9 10 tcp 576 ------- 1 0.0 4.0 10185 36
+ 0.516682 10 4 tcp 576 ------- 1 0.0 4.0 10185 36
- 0.516682 10 4 tcp 576 ------- 1 0.0 4.0 10185 36
r 0.517926 10 4 tcp 576 ------- 1 0.0 4.0 9113 34
+ 0.517926 4 10 ack 40 ------- 1 4.0 0.0 1 50
- 0.517926 4 10 ack 40 ------- 1 4.0 0.0 1 50
r 0.518742 4 10 ack 40 ------- 1 4.0 0.0 1 48
+ 0.518742 10 9 ack 40 ------- 1 4.0 0.0 1 48
- 0.518742 10 9 ack 40 ------- 1 4.0 0.0 1 48
- 0.519722 8 9 tcp 576 ------- 1 0.0 4.0 13937 43
r 0.520506 8 9 tcp 576 ------- 1 0.0 4.0 12329 40
+ 0.520506 9 10 tcp 576 ------- 1 0.0 4.0 12329 40
- 0.520506 9 10 tcp 576 ------- 1 0.0 4.0 12329 40
r 0.52129 9 10 tcp 576 ------- 1 0.0 4.0 10721 37
+ 0.52129 10 4 tcp 576 ------- 1 0.0 4.0 10721 37
- 0.52129 10 4 tcp 576 ------- 1 0.0 4.0 10721 37
r 0.522534 10 4 tcp 576 ------- 1 0.0 4.0 9649 35
+ 0.522534 4 10 ack 40 ------- 1 4.0 0.0 1 51
- 0.522534 4 10 ack 40 ------- 1 4.0 0.0 1 51
r 0.52335 4 10 ack 40 ------- 1 4.0 0.0 1 49
+ 0.52335 10 9 ack 40 ------- 1 4.0 0.0 1 49
- 0.52335 10 9 ack 40 ------- 1 4.0 0.0 1 49
- 0.52433 8 9 tcp 576 ------- 1 0.0 4.0 14473 44
r 0.524454 10 9 ack 40 ------- 1 4.0 0.0 1 47
+ 0.524454 9 8 ack 40 ------- 1 4.0 0.0 1 47
- 0.524454 9 8 ack 40 ------- 1 4.0 0.0 1 47
r 0.525114 8 9 tcp 576 ------- 1 0.0 4.0 12865 41
+ 0.525114 9 10 tcp 576 ------- 1 0.0 4.0 12865 41
- 0.525114 9 10 tcp 576 ------- 1 0.0 4.0 12865 41
r 0.525898 9 10 tcp 576 ------- 1 0.0 4.0 11257 38
+ 0.525898 10 4 tcp 576 ------- 1 0.0 4.0 11257 38
- 0.525898 10 4 tcp 576 ------- 1 0.0 4.0 11257 38
r 0.527142 10 4 tcp 576 ------- 1 0.0 4.0 10185 36
+ 0.527142 4 10 ack 40 ------- 1 4.0 0.0 1 52
- 0.527142 4 10 ack 40 ------- 1 4.0 0.0 1 52
r 0.527958 4 10 ack 40 ------- 1 4.0 0.0 1 50
+ 0.527958 10 9 ack 40 ------- 1 4.0 0.0 1 50
- 0.527958 10 9 ack 40 ------- 1 4.0 0.0 1 50
- 0.528938 8 9 tcp 576 ------- 1 0.0 4.0 15009 45
r 0.529062 10 9 ack 40 ------- 1 4.0 0.0 1 48
+ 0.529062 9 8 ack 40 ------- 1 4.0 0.0 1 48
- 0.529062 9 8 ack 40 ------- 1 4.0 0.0 1 48
r 0.529722 8 9 tcp 576 ------- 1 0.0 4.0 13401 42
+ 0.529722 9 10 tcp 576 ------- 1 0.0 4.0 13401 42
- 0.529722 9 10 tcp 576 ------- 1 0.0 4.0 13401 42
r 0.530506 9 10 tcp 576 ------- 1 0.0 4.0 11793 39
+ 0.530506 10 4 tcp 576 ------- 1 0.0 4.0 11793 39
- 0.530506 10 4 tcp 576 ------- 1 0.0 4.0 11793 39
r 0.53175 10 4 tcp 576 ------- 1 0.0 4.0 10721 37
+ 0.53175 4 10 ack 40 ------- 1 4.0 0.0 1 53
- 0.53175 4 10 ack 40 ------- 1 4.0 0.0 1 53
r 0.532566 4 10 ack 40 ------- 1 4.0 0.0 1 51
+ 0.532566 10 9 ack 40 ------- 1 4.0 0.0 1 51
- 0.532566 10 9 ack 40 ------- 1 4.0 0.0 1 51
- 0.533546 8 9 tcp 576 ------- 1 0.0 4.0 15545 46
r 0.53367 10 9 ack 40 ------- 1 4.0 0.0 1 49
+ 0.53367 9 8 ack 40 ------- 1 4.0 0.0 1 49
- 0.53367 9 8 ack 40 ------- 1 4.0 0.0 1 49
r 0.53433 8 9 tcp 576 ------- 1 0.0 4.0 13937 43
+ 0.53433 9 10 tcp 576 ------- 1 0.0 4.0 13937 43
- 0.53433 9 10 tcp 576 ------- 1 0.0 4.0 13937 43
r 0.534774 9 8 ack 40 ------- 1 4.0 0.0 1 47
+ 0.534774 8 0 ack 40 ------- 1 4.0 0.0 1 47
- 0.534774 8 0 ack 40 ------- 1 4.0 0.0 1 47
r 0.535114 9 10 tcp 576 ------- 1 0.0 4.0 12329 40
+ 0.535114 10 4 tcp 576 ------- 1 0.0 4.0 12329 40
- 0.535114 10 4 tcp 576 ------- 1 0.0 4.0 12329 40
r 0.536358 10 4 tcp 576 ------- 1 0.0 4.0 11257 38
+ 0.536358 4 10 ack 40 ------- 1 4.0 0.0 1 54
- 0.536358 4 10 ack 40 ------- 1 4.0 0.0 1 54
r 0.537174 4 10 ack 40 ------- 1 4.0 0.0 1 52
+ 0.537174 10 9 ack 40 ------- 1 4.0 0.0 1 52
- 0.537174 10 9 ack 40 ------- 1 4.0 0.0 1 52
r 0.538278 10 9 ack 40 ------- 1 4.0 0.0 1 50
+ 0.538278 9 8 ack 40 ------- 1 4.0 0.0 1 50
- 0.538278 9 8 ack 40 ------- 1 4.0 0.0 1 50
r 0.538938 8 9 tcp 576 ------- 1 0.0 4.0 14473 44
+ 0.538938 9 10 tcp 576 ------- 1 0.0 4.0 14473 44
- 0.538938 9 10 tcp 576 ------- 1 0.0 4.0 14473 44
r 0.539382 9 8 ack 40 ------- 1 4.0 0.0 1 48
+ 0.539382 8 0 ack 40 ------- 1 4.0 0.0 1 48
- 0.539382 8 0 ack 40 ------- 1 4.0 0.0 1 48
r 0.539722 9 10 tcp 576 ------- 1 0.0 4.0 12865 41
+ 0.539722 10 4 tcp 576 ------- 1 0.0 4.0 12865 41
- 0.539722 10 4 tcp 576 ------- 1 0.0 4.0 12865 41
r 0.540966 10 4 tcp 576 ------- 1 0.0 4.0 11793 39
+ 0.540966 4 10 ack 40 ------- 1 4.0 0.0 1 55
- 0.540966 4 10 ack 40 ------- 1 4.0 0.0 1 55
r 0.541782 4 10 ack 40 ------- 1 4.0 0.0 1 53
+ 0.541782 10 9 ack 40 ------- 1 4.0 0.0 1 53
- 0.541782 10 9 ack 40 ------- 1 4.0 0.0 1 53
r 0.542886 10 9 ack 40 ------- 1 4.0 0.0 1 51
+ 0.542886 9 8 ack 40 ------- 1 4.0 0.0 1 51
- 0.542886 9 8 ack 40 ------- 1 4.0 0.0 1 51
r 0.543546 8 9 tcp 576 ------- 1 0.0 4.0 15009 45
+ 0.543546 9 10 tcp 576 ------- 1 0.0 4.0 15009 45
- 0.543546 9 10 tcp 576 ------- 1 0.0 4.0 15009 45
r 0.54399 9 8 ack 40 ------- 1 4.0 0.0 1 49
+ 0.54399 8 0 ack 40 ------- 1 4.0 0.0 1 49
- 0.54399 8 0 ack 40 ------- 1 4.0 0.0 1 49
r 0.54433 9 10 tcp 576 ------- 1 0.0 4.0 13401 42
+ 0.54433 10 4 tcp 576 ------- 1 0.0 4.0 13401 42
- 0.54433 10 4 tcp 576 ------- 1 0.0 4.0 13401 42
r 0.544806 8 0 ack 40 ------- 1 4.0 0.0 1 47
+ 0.544806 0 8 tcp 576 ------- 1 0.0 4.0 16081 56
- 0.544806 0 8 tcp 576 ------- 1 0.0 4.0 16081 56
+ 0.544806 0 8 tcp 576 ------- 1 0.0 4.0 16617 57
- 0.545267 0 8 tcp 576 ------- 1 0.0 4.0 16617 57
r 0.545574 10 4 tcp 576 ------- 1 0.0 4.0 12329 40
+ 0.545574 4 10 ack 40 ------- 1 4.0 0.0 1 58
- 0.545574 4 10 ack 40 ------- 1 4.0 0.0 1 58
r 0.54639 4 10 ack 40 ------- 1 4.0 0.0 1 54
+ 0.54639 10 9 ack 40 ------- 1 4.0 0.0 1 54
- 0.54639 10 9 ack 40 ------- 1 4.0 0.0 1 54
r 0.547494 10 9 ack 40 ------- 1 4.0 0.0 1 52
+ 0.547494 9 8 ack 40 ------- 1 4.0 0.0 1 52
- 0.547494 9 8 ack 40 ------- 1 4.0 0.0 1 52
r 0.548154 8 9 tcp 576 ------- 1 0.0 4.0 15545 46
+ 0.548154 9 10 tcp 576 ------- 1 0.0 4.0 15545 46
- 0.548154 9 10 tcp 576 ------- 1 0.0 4.0 15545 46
r 0.548598 9 8 ack 40 ------- 1 4.0 0.0 1 50
+ 0.548598 8 0 ack 40 ------- 1 4.0 0.0 1 50
- 0.548598 8 0 ack 40 ------- 1 4.0 0.0 1 50
r 0.548938 9 10 tcp 576 ------- 1 0.0 4.0 13937 43
+ 0.548938 10 4 tcp 576 ------- 1 0.0 4.0 13937 43
- 0.548938 10 4 tcp 576 ------- 1 0.0 4.0 13937 43
r 0.549414 8 0 ack 40 ------- 1 4.0 0.0 1 48
+ 0.549414 0 8 tcp 576 ------- 1 0.0 4.0 17153 59
- 0.549414 0 8 tcp 576 ------- 1 0.0 4.0 17153 59