+ 0.1 0 1 tcp 40 ------- 0 0.0 3.0 0 0
- 0.1 0 1 tcp 40 ------- 0 0.0 3.0 0 0
r 0.105032 0 1 tcp 40 ------- 0 0.0 3.0 0 0
+ 0.105032 1 2 tcp 40 ------- 0 0.0 3.0 0 0
- 0.105032 1 2 tcp 40 ------- 0 0.0 3.0 0 0
r 0.110352 1 2 tcp 40 ------- 0 0.0 3.0 0 0
+ 0.110352 2 3 tcp 40 ------- 0 0.0 3.0 0 0
- 0.110352 2 3 tcp 40 ------- 0 0.0 3.0 0 0
r 0.115384 2 3 tcp 40 ------- 0 0.0 3.0 0 0
+ 0.115384 3 2 ack 40 ------- 0 3.0 0.0 0 1
- 0.115384 3 2 ack 40 ------- 0 3.0 0.0 0 1
r 0.120416 3 2 ack 40 ------- 0 3.0 0.0 0 1
+ 0.120416 2 1 ack 40 ------- 0 3.0 0.0 0 1
- 0.120416 2 1 ack 40 ------- 0 3.0 0.0 0 1
r 0.125736 2 1 ack 40 ------- 0 3.0 0.0 0 1
+ 0.125736 1 0 ack 40 ------- 0 3.0 0.0 0 1
- 0.125736 1 0 ack 40 ------- 0 3.0 0.0 0 1
r 0.130768 1 0 ack 40 ------- 0 3.0 0.0 0 1
+ 0.130768 0 1 tcp 40 ------- 0 0.0 3.0 1 2
- 0.130768 0 1 tcp 40 ------- 0 0.0 3.0 1 2
+ 0.130768 0 1 tcp 576 ------- 0 0.0 3.0 1 3
+ 0.130768 0 1 tcp 576 ------- 0 0.0 3.0 537 4
- 0.1308 0 1 tcp 576 ------- 0 0.0 3.0 1 3
- 0.131261 0 1 tcp 576 ------- 0 0.0 3.0 537 4
r 0.1358 0 1 tcp 40 ------- 0 0.0 3.0 1 2
+ 0.1358 1 2 tcp 40 ------- 0 0.0 3.0 1 2
- 0.1358 1 2 tcp 40 ------- 0 0.0 3.0 1 2
r 0.136261 0 1 tcp 576 ------- 0 0.0 3.0 1 3
+ 0.136261 1 2 tcp 576 ------- 0 0.0 3.0 1 3
- 0.136261 1 2 tcp 576 ------- 0 0.0 3.0 1 3
r 0.136722 0 1 tcp 576 ------- 0 0.0 3.0 537 4
+ 0.136722 1 2 tcp 576 ------- 0 0.0 3.0 537 4
- 0.140869 1 2 tcp 576 ------- 0 0.0 3.0 537 4
r 0.14112 1 2 tcp 40 ------- 0 0.0 3.0 1 2
+ 0.14112 2 3 tcp 40 ------- 0 0.0 3.0 1 2
- 0.14112 2 3 tcp 40 ------- 0 0.0 3.0 1 2
r 0.145869 1 2 tcp 576 ------- 0 0.0 3.0 1 3
+ 0.145869 2 3 tcp 576 ------- 0 0.0 3.0 1 3
- 0.145869 2 3 tcp 576 ------- 0 0.0 3.0 1 3
r 0.146152 2 3 tcp 40 ------- 0 0.0 3.0 1 2
r 0.150477 1 2 tcp 576 ------- 0 0.0 3.0 537 4
+ 0.150477 2 3 tcp 576 ------- 0 0.0 3.0 537 4
- 0.150477 2 3 tcp 576 ------- 0 0.0 3.0 537 4
r 0.15133 2 3 tcp 576 ------- 0 0.0 3.0 1 3
+ 0.15133 3 2 ack 40 ------- 0 3.0 0.0 1 5
- 0.15133 3 2 ack 40 ------- 0 3.0 0.0 1 5
r 0.155938 2 3 tcp 576 ------- 0 0.0 3.0 537 4
+ 0.155938 3 2 ack 40 ------- 0 3.0 0.0 1 6
- 0.155938 3 2 ack 40 ------- 0 3.0 0.0 1 6
r 0.156362 3 2 ack 40 ------- 0 3.0 0.0 1 5
+ 0.156362 2 1 ack 40 ------- 0 3.0 0.0 1 5
- 0.156362 2 1 ack 40 ------- 0 3.0 0.0 1 5
r 0.16097 3 2 ack 40 ------- 0 3.0 0.0 1 6
+ 0.16097 2 1 ack 40 ------- 0 3.0 0.0 1 6
- 0.16097 2 1 ack 40 ------- 0 3.0 0.0 1 6
r 0.161682 2 1 ack 40 ------- 0 3.0 0.0 1 5
+ 0.161682 1 0 ack 40 ------- 0 3.0 0.0 1 5
- 0.161682 1 0 ack 40 ------- 0 3.0 0.0 1 5
r 0.16629 2 1 ack 40 ------- 0 3.0 0.0 1 6
+ 0.16629 1 0 ack 40 ------- 0 3.0 0.0 1 6
- 0.16629 1 0 ack 40 ------- 0 3.0 0.0 1 6
r 0.166714 1 0 ack 40 ------- 0 3.0 0.0 1 5
+ 0.166714 0 1 tcp 576 ------- 0 0.0 3.0 1073 7
- 0.166714 0 1 tcp 576 ------- 0 0.0 3.0 1073 7
+ 0.166714 0 1 tcp 576 ------- 0 0.0 3.0 1609 8
- 0.167174 0 1 tcp 576 ------- 0 0.0 3.0 1609 8
r 0.171322 1 0 ack 40 ------- 0 3.0 0.0 1 6
+ 0.171322 0 1 tcp 576 ------- 0 0.0 3.0 2145 9
- 0.171322 0 1 tcp 576 ------- 0 0.0 3.0 2145 9
+ 0.171322 0 1 tcp 576 ------- 0 0.0 3.0 2681 10
- 0.171782 0 1 tcp 576 ------- 0 0.0 3.0 2681 10
r 0.172174 0 1 tcp 576 ------- 0 0.0 3.0 1073 7
+ 0.172174 1 2 tcp 576 ------- 0 0.0 3.0 1073 7
- 0.172174 1 2 tcp 576 ------- 0 0.0 3.0 1073 7
r 0.172635 0 1 tcp 576 ------- 0 0.0 3.0 1609 8
+ 0.172635 1 2 tcp 576 ------- 0 0.0 3.0 1609 8
r 0.176782 0 1 tcp 576 ------- 0 0.0 3.0 2145 9
+ 0.176782 1 2 tcp 576 ------- 0 0.0 3.0 2145 9
- 0.176782 1 2 tcp 576 ------- 0 0.0 3.0 1609 8
r 0.177243 0 1 tcp 576 ------- 0 0.0 3.0 2681 10
+ 0.177243 1 2 tcp 576 ------- 0 0.0 3.0 2681 10
- 0.18139 1 2 tcp 576 ------- 0 0.0 3.0 2145 9
r 0.181782 1 2 tcp 576 ------- 0 0.0 3.0 1073 7
+ 0.181782 2 3 tcp 576 ------- 0 0.0 3.0 1073 7
- 0.181782 2 3 tcp 576 ------- 0 0.0 3.0 1073 7
- 0.185998 1 2 tcp 576 ------- 0 0.0 3.0 2681 10
r 0.18639 1 2 tcp 576 ------- 0 0.0 3.0 1609 8
+ 0.18639 2 3 tcp 576 ------- 0 0.0 3.0 1609 8
- 0.18639 2 3 tcp 576 ------- 0 0.0 3.0 1609 8
r 0.187243 2 3 tcp 576 ------- 0 0.0 3.0 1073 7
+ 0.187243 3 2 ack 40 ------- 0 3.0 0.0 1 11
- 0.187243 3 2 ack 40 ------- 0 3.0 0.0 1 11
r 0.190998 1 2 tcp 576 ------- 0 0.0 3.0 2145 9
+ 0.190998 2 3 tcp 576 ------- 0 0.0 3.0 2145 9
- 0.190998 2 3 tcp 576 ------- 0 0.0 3.0 2145 9
r 0.191851 2 3 tcp 576 ------- 0 0.0 3.0 1609 8
+ 0.191851 3 2 ack 40 ------- 0 3.0 0.0 1 12
- 0.191851 3 2 ack 40 ------- 0 3.0 0.0 1 12
r 0.192275 3 2 ack 40 ------- 0 3.0 0.0 1 11
+ 0.192275 2 1 ack 40 ------- 0 3.0 0.0 1 11
- 0.192275 2 1 ack 40 ------- 0 3.0 0.0 1 11
r 0.195606 1 2 tcp 576 ------- 0 0.0 3.0 2681 10
+ 0.195606 2 3 tcp 576 ------- 0 0.0 3.0 2681 10
- 0.195606 2 3 tcp 576 ------- 0 0.0 3.0 2681 10
r 0.196459 2 3 tcp 576 ------- 0 0.0 3.0 2145 9
+ 0.196459 3 2 ack 40 ------- 0 3.0 0.0 1 13
- 0.196459 3 2 ack 40 ------- 0 3.0 0.0 1 13
r 0.196883 3 2 ack 40 ------- 0 3.0 0.0 1 12
+ 0.196883 2 1 ack 40 ------- 0 3.0 0.0 1 12
- 0.196883 2 1 ack 40 ------- 0 3.0 0.0 1 12
r 0.197595 2 1 ack 40 ------- 0 3.0 0.0 1 11
+ 0.197595 1 0 ack 40 ------- 0 3.0 0.0 1 11
- 0.197595 1 0 ack 40 ------- 0 3.0 0.0 1 11
r 0.201067 2 3 tcp 576 ------- 0 0.0 3.0 2681 10
+ 0.201067 3 2 ack 40 ------- 0 3.0 0.0 1 14
- 0.201067 3 2 ack 40 ------- 0 3.0 0.0 1 14
r 0.201491 3 2 ack 40 ------- 0 3.0 0.0 1 13
+ 0.201491 2 1 ack 40 ------- 0 3.0 0.0 1 13
- 0.201491 2 1 ack 40 ------- 0 3.0 0.0 1 13
r 0.202203 2 1 ack 40 ------- 0 3.0 0.0 1 12
+ 0.202203 1 0 ack 40 ------- 0 3.0 0.0 1 12
- 0.202203 1 0 ack 40 ------- 0 3.0 0.0 1 12
r 0.202627 1 0 ack 40 ------- 0 3.0 0.0 1 11
+ 0.202627 0 1 tcp 576 ------- 0 0.0 3.0 3217 15
- 0.202627 0 1 tcp 576 ------- 0 0.0 3.0 3217 15
+ 0.202627 0 1 tcp 576 ------- 0 0.0 3.0 3753 16
- 0.203088 0 1 tcp 576 ------- 0 0.0 3.0 3753 16
r 0.206099 3 2 ack 40 ------- 0 3.0 0.0 1 14
+ 0.206099 2 1 ack 40 ------- 0 3.0 0.0 1 14
- 0.206099 2 1 ack 40 ------- 0 3.0 0.0 1 14
r 0.206811 2 1 ack 40 ------- 0 3.0 0.0 1 13
+ 0.206811 1 0 ack 40 ------- 0 3.0 0.0 1 13
- 0.206811 1 0 ack 40 ------- 0 3.0 0.0 1 13
r 0.207235 1 0 ack 40 ------- 0 3.0 0.0 1 12
+ 0.207235 0 1 tcp 576 ------- 0 0.0 3.0 4289 17
- 0.207235 0 1 tcp 576 ------- 0 0.0 3.0 4289 17
+ 0.207235 0 1 tcp 576 ------- 0 0.0 3.0 4825 18
- 0.207696 0 1 tcp 576 ------- 0 0.0 3.0 4825 18
r 0.208088 0 1 tcp 576 ------- 0 0.0 3.0 3217 15
+ 0.208088 1 2 tcp 576 ------- 0 0.0 3.0 3217 15
- 0.208088 1 2 tcp 576 ------- 0 0.0 3.0 3217 15
r 0.208549 0 1 tcp 576 ------- 0 0.0 3.0 3753 16
+ 0.208549 1 2 tcp 576 ------- 0 0.0 3.0 3753 16
r 0.211419 2 1 ack 40 ------- 0 3.0 0.0 1 14
+ 0.211419 1 0 ack 40 ------- 0 3.0 0.0 1 14
- 0.211419 1 0 ack 40 ------- 0 3.0 0.0 1 14
r 0.211843 1 0 ack 40 ------- 0 3.0 0.0 1 13
+ 0.211843 0 1 tcp 576 ------- 0 0.0 3.0 5361 19
- 0.211843 0 1 tcp 576 ------- 0 0.0 3.0 5361 19
+ 0.211843 0 1 tcp 576 ------- 0 0.0 3.0 5897 20
- 0.212304 0 1 tcp 576 ------- 0 0.0 3.0 5897 20
r 0.212696 0 1 tcp 576 ------- 0 0.0 3.0 4289 17
+ 0.212696 1 2 tcp 576 ------- 0 0.0 3.0 4289 17
- 0.212696 1 2 tcp 576 ------- 0 0.0 3.0 3753 16
r 0.213157 0 1 tcp 576 ------- 0 0.0 3.0 4825 18
+ 0.213157 1 2 tcp 576 ------- 0 0.0 3.0 4825 18
r 0.216451 1 0 ack 40 ------- 0 3.0 0.0 1 14
+ 0.216451 0 1 tcp 576 ------- 0 0.0 3.0 6433 21
- 0.216451 0 1 tcp 576 ------- 0 0.0 3.0 6433 21
+ 0.216451 0 1 tcp 576 ------- 0 0.0 3.0 6969 22
- 0.216912 0 1 tcp 576 ------- 0 0.0 3.0 6969 22
r 0.217304 0 1 tcp 576 ------- 0 0.0 3.0 5361 19
+ 0.217304 1 2 tcp 576 ------- 0 0.0 3.0 5361 19
- 0.217304 1 2 tcp 576 ------- 0 0.0 3.0 4289 17
r 0.217696 1 2 tcp 576 ------- 0 0.0 3.0 3217 15
+ 0.217696 2 3 tcp 576 ------- 0 0.0 3.0 3217 15
- 0.217696 2 3 tcp 576 ------- 0 0.0 3.0 3217 15
r 0.217765 0 1 tcp 576 ------- 0 0.0 3.0 5897 20
+ 0.217765 1 2 tcp 576 ------- 0 0.0 3.0 5897 20
r 0.221912 0 1 tcp 576 ------- 0 0.0 3.0 6433 21
+ 0.221912 1 2 tcp 576 ------- 0 0.0 3.0 6433 21
- 0.221912 1 2 tcp 576 ------- 0 0.0 3.0 4825 18
r 0.222304 1 2 tcp 576 ------- 0 0.0 3.0 3753 16
+ 0.222304 2 3 tcp 576 ------- 0 0.0 3.0 3753 16
- 0.222304 2 3 tcp 576 ------- 0 0.0 3.0 3753 16
r 0.222373 0 1 tcp 576 ------- 0 0.0 3.0 6969 22
+ 0.222373 1 2 tcp 576 ------- 0 0.0 3.0 6969 22
r 0.223157 2 3 tcp 576 ------- 0 0.0 3.0 3217 15
+ 0.223157 3 2 ack 40 ------- 0 3.0 0.0 1 23
- 0.223157 3 2 ack 40 ------- 0 3.0 0.0 1 23
- 0.22652 1 2 tcp 576 ------- 0 0.0 3.0 5361 19
r 0.226912 1 2 tcp 576 ------- 0 0.0 3.0 4289 17
+ 0.226912 2 3 tcp 576 ------- 0 0.0 3.0 4289 17
- 0.226912 2 3 tcp 576 ------- 0 0.0 3.0 4289 17
r 0.227765 2 3 tcp 576 ------- 0 0.0 3.0 3753 16
+ 0.227765 3 2 ack 40 ------- 0 3.0 0.0 1 24
- 0.227765 3 2 ack 40 ------- 0 3.0 0.0 1 24
r 0.228189 3 2 ack 40 ------- 0 3.0 0.0 1 23
+ 0.228189 2 1 ack 40 ------- 0 3.0 0.0 1 23
- 0.228189 2 1 ack 40 ------- 0 3.0 0.0 1 23
- 0.231128 1 2 tcp 576 ------- 0 0.0 3.0 5897 20
r 0.23152 1 2 tcp 576 ------- 0 0.0 3.0 4825 18
+ 0.23152 2 3 tcp 576 ------- 0 0.0 3.0 4825 18
- 0.23152 2 3 tcp 576 ------- 0 0.0 3.0 4825 18
r 0.232373 2 3 tcp 576 ------- 0 0.0 3.0 4289 17
+ 0.232373 3 2 ack 40 ------- 0 3.0 0.0 1 25
- 0.232373 3 2 ack 40 ------- 0 3.0 0.0 1 25
r 0.232797 3 2 ack 40 ------- 0 3.0 0.0 1 24
+ 0.232797 2 1 ack 40 ------- 0 3.0 0.0 1 24
- 0.232797 2 1 ack 40 ------- 0 3.0 0.0 1 24
r 0.233509 2 1 ack 40 ------- 0 3.0 0.0 1 23
+ 0.233509 1 0 ack 40 ------- 0 3.0 0.0 1 23
- 0.233509 1 0 ack 40 ------- 0 3.0 0.0 1 23
- 0.235736 1 2 tcp 576 ------- 0 0.0 3.0 6433 21
r 0.236128 1 2 tcp 576 ------- 0 0.0 3.0 5361 19
+ 0.236128 2 3 tcp 576 ------- 0 0.0 3.0 5361 19
- 0.236128 2 3 tcp 576 ------- 0 0.0 3.0 5361 19
r 0.236981 2 3 tcp 576 ------- 0 0.0 3.0 4825 18
+ 0.236981 3 2 ack 40 ------- 0 3.0 0.0 1 26
- 0.236981 3 2 ack 40 ------- 0 3.0 0.0 1 26
r 0.237405 3 2 ack 40 ------- 0 3.0 0.0 1 25
+ 0.237405 2 1 ack 40 ------- 0 3.0 0.0 1 25
- 0.237405 2 1 ack 40 ------- 0 3.0 0.0 1 25
r 0.238117 2 1 ack 40 ------- 0 3.0 0.0 1 24
+ 0.238117 1 0 ack 40 ------- 0 3.0 0.0 1 24
- 0.238117 1 0 ack 40 ------- 0 3.0 0.0 1 24
r 0.238541 1 0 ack 40 ------- 0 3.0 0.0 1 23
+ 0.238541 0 1 tcp 576 ------- 0 0.0 3.0 7505 27
- 0.238541 0 1 tcp 576 ------- 0 0.0 3.0 7505 27
+ 0.238541 0 1 tcp 576 ------- 0 0.0 3.0 8041 28
- 0.239002 0 1 tcp 576 ------- 0 0.0 3.0 8041 28
- 0.240344 1 2 tcp 576 ------- 0 0.0 3.0 6969 22
r 0.240736 1 2 tcp 576 ------- 0 0.0 3.0 5897 20
+ 0.240736 2 3 tcp 576 ------- 0 0.0 3.0 5897 20
- 0.240736 2 3 tcp 576 ------- 0 0.0 3.0 5897 20
r 0.241589 2 3 tcp 576 ------- 0 0.0 3.0 5361 19
+ 0.241589 3 2 ack 40 ------- 0 3.0 0.0 1 29
- 0.241589 3 2 ack 40 ------- 0 3.0 0.0 1 29
r 0.242013 3 2 ack 40 ------- 0 3.0 0.0 1 26
+ 0.242013 2 1 ack 40 ------- 0 3.0 0.0 1 26
- 0.242013 2 1 ack 40 ------- 0 3.0 0.0 1 26
r 0.242725 2 1 ack 40 ------- 0 3.0 0.0 1 25
+ 0.242725 1 0 ack 40 ------- 0 3.0 0.0 1 25
- 0.242725 1 0 ack 40 ------- 0 3.0 0.0 1 25
r 0.243149 1 0 ack 40 ------- 0 3.0 0.0 1 24
+ 0.243149 0 1 tcp 576 ------- 0 0.0 3.0 8577 30
- 0.243149 0 1 tcp 576 ------- 0 0.0 3.0 8577 30
+ 0.243149 0 1 tcp 576 ------- 0 0.0 3.0 9113 31
- 0.24361 0 1 tcp 576 ------- 0 0.0 3.0 9113 31
r 0.244002 0 1 tcp 576 ------- 0 0.0 3.0 7505 27
+ 0.244002 1 2 tcp 576 ------- 0 0.0 3.0 7505 27
r 0.244462 0 1 tcp 576 ------- 0 0.0 3.0 8041 28
+ 0.244462 1 2 tcp 576 ------- 0 0.0 3.0 8041 28
- 0.244952 1 2 tcp 576 ------- 0 0.0 3.0 7505 27
r 0.245344 1 2 tcp 576 ------- 0 0.0 3.0 6433 21
+ 0.245344 2 3 tcp 576 ------- 0 0.0 3.0 6433 21
- 0.245344 2 3 tcp 576 ------- 0 0.0 3.0 6433 21
r 0.246197 2 3 tcp 576 ------- 0 0.0 3.0 5897 20
+ 0.246197 3 2 ack 40 ------- 0 3.0 0.0 1 32
- 0.246197 3 2 ack 40 ------- 0 3.0 0.0 1 32
r 0.246621 3 2 ack 40 ------- 0 3.0 0.0 1 29
+ 0.246621 2 1 ack 40 ------- 0 3.0 0.0 1 29
- 0.246621 2 1 ack 40 ------- 0 3.0 0.0 1 29
r 0.247333 2 1 ack 40 ------- 0 3.0 0.0 1 26
+ 0.247333 1 0 ack 40 ------- 0 3.0 0.0 1 26
- 0.247333 1 0 ack 40 ------- 0 3.0 0.0 1 26
r 0.247757 1 0 ack 40 ------- 0 3.0 0.0 1 25
+ 0.247757 0 1 tcp 576 ------- 0 0.0 3.0 9649 33
- 0.247757 0 1 tcp 576 ------- 0 0.0 3.0 9649 33
+ 0.247757 0 1 tcp 576 ------- 0 0.0 3.0 10185 34
- 0.248218 0 1 tcp 576 ------- 0 0.0 3.0 10185 34
r 0.24861 0 1 tcp 576 ------- 0 0.0 3.0 8577 30
+ 0.24861 1 2 tcp 576 ------- 0 0.0 3.0 8577 30
r 0.24907 0 1 tcp 576 ------- 0 0.0 3.0 9113 31
+ 0.24907 1 2 tcp 576 ------- 0 0.0 3.0 9113 31
- 0.24956 1 2 tcp 576 ------- 0 0.0 3.0 8041 28
r 0.249952 1 2 tcp 576 ------- 0 0.0 3.0 6969 22
+ 0.249952 2 3 tcp 576 ------- 0 0.0 3.0 6969 22
- 0.249952 2 3 tcp 576 ------- 0 0.0 3.0 6969 22
r 0.250805 2 3 tcp 576 ------- 0 0.0 3.0 6433 21
+ 0.250805 3 2 ack 40 ------- 0 3.0 0.0 1 35
- 0.250805 3 2 ack 40 ------- 0 3.0 0.0 1 35
r 0.251229 3 2 ack 40 ------- 0 3.0 0.0 1 32
+ 0.251229 2 1 ack 40 ------- 0 3.0 0.0 1 32
- 0.251229 2 1 ack 40 ------- 0 3.0 0.0 1 32
r 0.251941 2 1 ack 40 ------- 0 3.0 0.0 1 29
+ 0.251941 1 0 ack 40 ------- 0 3.0 0.0 1 29
- 0.251941 1 0 ack 40 ------- 0 3.0 0.0 1 29
r 0.252365 1 0 ack 40 ------- 0 3.0 0.0 1 26
+ 0.252365 0 1 tcp 576 ------- 0 0.0 3.0 10721 36
- 0.252365 0 1 tcp 576 ------- 0 0.0 3.0 10721 36
+ 0.252365 0 1 tcp 576 ------- 0 0.0 3.0 11257 37
- 0.252826 0 1 tcp 576 ------- 0 0.0 3.0 11257 37
r 0.253218 0 1 tcp 576 ------- 0 0.0 3.0 9649 33
+ 0.253218 1 2 tcp 576 ------- 0 0.0 3.0 9649 33
r 0.253678 0 1 tcp 576 ------- 0 0.0 3.0 10185 34
+ 0.253678 1 2 tcp 576 ------- 0 0.0 3.0 10185 34
- 0.254168 1 2 tcp 576 ------- 0 0.0 3.0 8577 30
r 0.25456 1 2 tcp 576 ------- 0 0.0 3.0 7505 27
+ 0.25456 2 3 tcp 576 ------- 0 0.0 3.0 7505 27
- 0.25456 2 3 tcp 576 ------- 0 0.0 3.0 7505 27
r 0.255413 2 3 tcp 576 ------- 0 0.0 3.0 6969 22
+ 0.255413 3 2 ack 40 ------- 0 3.0 0.0 1 38
- 0.255413 3 2 ack 40 ------- 0 3.0 0.0 1 38
r 0.255837 3 2 ack 40 ------- 0 3.0 0.0 1 35
+ 0.255837 2 1 ack 40 ------- 0 3.0 0.0 1 35
- 0.255837 2 1 ack 40 ------- 0 3.0 0.0 1 35
r 0.256549 2 1 ack 40 ------- 0 3.0 0.0 1 32
+ 0.256549 1 0 ack 40 ------- 0 3.0 0.0 1 32
- 0.256549 1 0 ack 40 ------- 0 3.0 0.0 1 32
r 0.256973 1 0 ack 40 ------- 0 3.0 0.0 1 29
+ 0.256973 0 1 tcp 576 ------- 0 0.0 3.0 11793 39
- 0.256973 0 1 tcp 576 ------- 0 0.0 3.0 11793 39
+ 0.256973 0 1 tcp 576 ------- 0 0.0 3.0 12329 40
- 0.257434 0 1 tcp 576 ------- 0 0.0 3.0 12329 40
r 0.257826 0 1 tcp 576 ------- 0 0.0 3.0 10721 36
+ 0.257826 1 2 tcp 576 ------- 0 0.0 3.0 10721 36
r 0.258286 0 1 tcp 576 ------- 0 0.0 3.0 11257 37
+ 0.258286 1 2 tcp 576 ------- 0 0.0 3.0 11257 37
- 0.258776 1 2 tcp 576 ------- 0 0.0 3.0 9113 31
r 0.259168 1 2 tcp 576 ------- 0 0.0 3.0 8041 28
+ 0.259168 2 3 tcp 576 ------- 0 0.0 3.0 8041 28
- 0.259168 2 3 tcp 576 ------- 0 0.0 3.0 8041 28
r 0.260021 2 3 tcp 576 ------- 0 0.0 3.0 7505 27
+ 0.260021 3 2 ack 40 ------- 0 3.0 0.0 1 41
- 0.260021 3 2 ack 40 ------- 0 3.0 0.0 1 41
r 0.260445 3 2 ack 40 ------- 0 3.0 0.0 1 38
+ 0.260445 2 1 ack 40 ------- 0 3.0 0.0 1 38
- 0.260445 2 1 ack 40 ------- 0 3.0 0.0 1 38
r 0.261157 2 1 ack 40 ------- 0 3.0 0.0 1 35
+ 0.261157 1 0 ack 40 ------- 0 3.0 0.0 1 35
- 0.261157 1 0 ack 40 ------- 0 3.0 0.0 1 35
r 0.261581 1 0 ack 40 ------- 0 3.0 0.0 1 32
+ 0.261581 0 1 tcp 576 ------- 0 0.0 3.0 12865 42
- 0.261581 0 1 tcp 576 ------- 0 0.0 3.0 12865 42
+ 0.261581 0 1 tcp 576 ------- 0 0.0 3.0 13401 43
- 0.262042 0 1 tcp 576 ------- 0 0.0 3.0 13401 43
r 0.262434 0 1 tcp 576 ------- 0 0.0 3.0 11793 39
+ 0.262434 1 2 tcp 576 ------- 0 0.0 3.0 11793 39
r 0.262894 0 1 tcp 576 ------- 0 0.0 3.0 12329 40
+ 0.262894 1 2 tcp 576 ------- 0 0.0 3.0 12329 40
- 0.263384 1 2 tcp 576 ------- 0 0.0 3.0 9649 33
r 0.263776 1 2 tcp 576 ------- 0 0.0 3.0 8577 30
+ 0.263776 2 3 tcp 576 ------- 0 0.0 3.0 8577 30
- 0.263776 2 3 tcp 576 ------- 0 0.0 3.0 8577 30
r 0.264629 2 3 tcp 576 ------- 0 0.0 3.0 8041 28
+ 0.264629 3 2 ack 40 ------- 0 3.0 0.0 1 44
- 0.264629 3 2 ack 40 ------- 0 3.0 0.0 1 44
r 0.265053 3 2 ack 40 ------- 0 3.0 0.0 1 41
+ 0.265053 2 1 ack 40 ------- 0 3.0 0.0 1 41
- 0.265053 2 1 ack 40 ------- 0 3.0 0.0 1 41
r 0.265765 2 1 ack 40 ------- 0 3.0 0.0 1 38
+ 0.265765 1 0 ack 40 ------- 0 3.0 0.0 1 38
- 0.265765 1 0 ack 40 ------- 0 3.0 0.0 1 38
r 0.266189 1 0 ack 40 ------- 0 3.0 0.0 1 35
+ 0.266189 0 1 tcp 576 ------- 0 0.0 3.0 13937 45
- 0.266189 0 1 tcp 576 ------- 0 0.0 3.0 13937 45
+ 0.266189 0 1 tcp 576 ------- 0 0.0 3.0 14473 46
- 0.26665 0 1 tcp 576 ------- 0 0.0 3.0 14473 46
r 0.267042 0 1 tcp 576 ------- 0 0.0 3.0 12865 42
+ 0.267042 1 2 tcp 576 ------- 0 0.0 3.0 12865 42
r 0.267502 0 1 tcp 576 ------- 0 0.0 3.0 13401 43
+ 0.267502 1 2 tcp 576 ------- 0 0.0 3.0 13401 43
- 0.267992 1 2 tcp 576 ------- 0 0.0 3.0 10185 34
r 0.268384 1 2 tcp 576 ------- 0 0.0 3.0 9113 31
+ 0.268384 2 3 tcp 576 ------- 0 0.0 3.0 9113 31
- 0.268384 2 3 tcp 576 ------- 0 0.0 3.0 9113 31
r 0.269237 2 3 tcp 576 ------- 0 0.0 3.0 8577 30
+ 0.269237 3 2 ack 40 ------- 0 3.0 0.0 1 47
- 0.269237 3 2 ack 40 ------- 0 3.0 0.0 1 47
r 0.269661 3 2 ack 40 ------- 0 3.0 0.0 1 44
+ 0.269661 2 1 ack 40 ------- 0 3.0 0.0 1 44
- 0.269661 2 1 ack 40 ------- 0 3.0 0.0 1 44
r 0.270373 2 1 ack 40 ------- 0 3.0 0.0 1 41
+ 0.270373 1 0 ack 40 ------- 0 3.0 0.0 1 41
- 0.270373 1 0 ack 40 ------- 0 3.0 0.0 1 41
r 0.270797 1 0 ack 40 ------- 0 3.0 0.0 1 38
+ 0.270797 0 1 tcp 576 ------- 0 0.0 3.0 15009 48
- 0.270797 0 1 tcp 576 ------- 0 0.0 3.0 15009 48
+ 0.270797 0 1 tcp 576 ------- 0 0.0 3.0 15545 49
- 0.271258 0 1 tcp 576 ------- 0 0.0 3.0 15545 49
r 0.27165 0 1 tcp 576 ------- 0 0.0 3.0 13937 45
+ 0.27165 1 2 tcp 576 ------- 0 0.0 3.0 13937 45
r 0.27211 0 1 tcp 576 ------- 0 0.0 3.0 14473 46
+ 0.27211 1 2 tcp 576 ------- 0 0.0 3.0 14473 46
- 0.2726 1 2 tcp 576 ------- 0 0.0 3.0 10721 36
r 0.272992 1 2 tcp 576 ------- 0 0.0 3.0 9649 33
+ 0.272992 2 3 tcp 576 ------- 0 0.0 3.0 9649 33
- 0.272992 2 3 tcp 576 ------- 0 0.0 3.0 9649 33
r 0.273845 2 3 tcp 576 ------- 0 0.0 3.0 9113 31
+ 0.273845 3 2 ack 40 ------- 0 3.0 0.0 1 50
- 0.273845 3 2 ack 40 ------- 0 3.0 0.0 1 50
r 0.274269 3 2 ack 40 ------- 0 3.0 0.0 1 47
+ 0.274269 2 1 ack 40 ------- 0 3.0 0.0 1 47
- 0.274269 2 1 ack 40 ------- 0 3.0 0.0 1 47
r 0.274981 2 1 ack 40 ------- 0 3.0 0.0 1 44
+ 0.274981 1 0 ack 40 ------- 0 3.0 0.0 1 44
- 0.274981 1 0 ack 40 ------- 0 3.0 0.0 1 44
r 0.275405 1 0 ack 40 ------- 0 3.0 0.0 1 41
+ 0.275405 0 1 tcp 576 ------- 0 0.0 3.0 16081 51
- 0.275405 0 1 tcp 576 ------- 0 0.0 3.0 16081 51
+ 0.275405 0 1 tcp 576 ------- 0 0.0 3.0 16617 52
- 0.275866 0 1 tcp 576 ------- 0 0.0 3.0 16617 52
r 0.276258 0 1 tcp 576 ------- 0 0.0 3.0 15009 48
+ 0.276258 1 2 tcp 576 ------- 0 0.0 3.0 15009 48
r 0.276718 0 1 tcp 576 ------- 0 0.0 3.0 15545 49
+ 0.276718 1 2 tcp 576 ------- 0 0.0 3.0 15545 49
- 0.277208 1 2 tcp 576 ------- 0 0.0 3.0 11257 37
r 0.2776 1 2 tcp 576 ------- 0 0.0 3.0 10185 34
+ 0.2776 2 3 tcp 576 ------- 0 0.0 3.0 10185 34
- 0.2776 2 3 tcp 576 ------- 0 0.0 3.0 10185 34
r 0.278453 2 3 tcp 576 ------- 0 0.0 3.0 9649 33
+ 0.278453 3 2 ack 40 ------- 0 3.0 0.0 1 53
- 0.278453 3 2 ack 40 ------- 0 3.0 0.0 1 53
r 0.278877 3 2 ack 40 ------- 0 3.0 0.0 1 50
+ 0.278877 2 1 ack 40 ------- 0 3.0 0.0 1 50
- 0.278877 2 1 ack 40 ------- 0 3.0 0.0 1 50
r 0.279589 2 1 ack 40 ------- 0 3.0 0.0 1 47
+ 0.279589 1 0 ack 40 ------- 0 3.0 0.0 1 47
- 0.279589 1 0 ack 40 ------- 0 3.0 0.0 1 47
r 0.280013 1 0 ack 40 ------- 0 3.0 0.0 1 44
+ 0.280013 0 1 tcp 576 ------- 0 0.0 3.0 17153 54
- 0.280013 0 1 tcp 576 ------- 0 0.0 3.0 17153 54
+ 0.280013 0 1 tcp 576 ------- 0 0.0 3.0 17689 55
- 0.280474 0 1 tcp 576 ------- 0 0.0 3.0 17689 55
r 0.280866 0 1 tcp 576 ------- 0 0.0 3.0 16081 51
+ 0.280866 1 2 tcp 576 ------- 0 0.0 3.0 16081 51
r 0.281326 0 1 tcp 576 ------- 0 0.0 3.0 16617 52
+ 0.281326 1 2 tcp 576 ------- 0 0.0 3.0 16617 52
- 0.281816 1 2 tcp 576 ------- 0 0.0 3.0 11793 39
r 0.282208 1 2 tcp 576 ------- 0 0.0 3.0 10721 36
+ 0.282208 2 3 tcp 576 ------- 0 0.0 3.0 10721 36
- 0.282208 2 3 tcp 576 ------- 0 0.0 3.0 10721 36
r 0.283061 2 3 tcp 576 ------- 0 0.0 3.0 10185 34
+ 0.283061 3 2 ack 40 ------- 0 3.0 0.0 1 56
- 0.283061 3 2 ack 40 ------- 0 3.0 0.0 1 56
r 0.283485 3 2 ack 40 ------- 0 3.0 0.0 1 53
+ 0.283485 2 1 ack 40 ------- 0 3.0 0.0 1 53
- 0.283485 2 1 ack 40 ------- 0 3.0 0.0 1 53
r 0.284197 2 1 ack 40 ------- 0 3.0 0.0 1 50
+ 0.284197 1 0 ack 40 ------- 0 3.0 0.0 1 50
- 0.284197 1 0 ack 40 ------- 0 3.0 0.0 1 50
r 0.284621 1 0 ack 40 ------- 0 3.0 0.0 1 47
+ 0.284621 0 1 tcp 576 ------- 0 0.0 3.0 18225 57
- 0.284621 0 1 tcp 576 ------- 0 0.0 3.0 18225 57
+ 0.284621 0 1 tcp 576 ------- 0 0.0 3.0 18761 58
- 0.285082 0 1 tcp 576 ------- 0 0.0 3.0 18761 58
r 0.285474 0 1 tcp 576 ------- 0 0.0 3.0 17153 54
+ 0.285474 1 2 tcp 576 ------- 0 0.0 3.0 17153 54
r 0.285934 0 1 tcp 576 ------- 0 0.0 3.0 17689 55
+ 0.285934 1 2 tcp 576 ------- 0 0.0 3.0 17689 55
- 0.286424 1 2 tcp 576 ------- 0 0.0 3.0 12329 40
r 0.286816 1 2 tcp 576 ------- 0 0.0 3.0 11257 37
+ 0.286816 2 3 tcp 576 ------- 0 0.0 3.0 11257 37
- 0.286816 2 3 tcp 576 ------- 0 0.0 3.0 11257 37
r 0.287669 2 3 tcp 576 ------- 0 0.0 3.0 10721 36
+ 0.287669 3 2 ack 40 ------- 0 3.0 0.0 1 59
- 0.287669 3 2 ack 40 ------- 0 3.0 0.0 1 59
r 0.288093 3 2 ack 40 ------- 0 3.0 0.0 1 56
+ 0.288093 2 1 ack 40 ------- 0 3.0 0.0 1 56
- 0.288093 2 1 ack 40 ------- 0 3.0 0.0 1 56
r 0.288805 2 1 ack 40 ------- 0 3.0 0.0 1 53
+ 0.288805 1 0 ack 40 ------- 0 3.0 0.0 1 53
- 0.288805 1 0 ack 40 ------- 0 3.0 0.0 1 53
r 0.289229 1 0 ack 40 ------- 0 3.0 0.0 1 50
+ 0.289229 0 1 tcp 576 ------- 0 0.0 3.0 19297 60
- 0.289229 0 1 tcp 576 ------- 0 0.0 3.0 19297 60
+ 0.289229 0 1 tcp 576 ------- 0 0.0 3.0 19833 61
- 0.28969 0 1 tcp 576 ------- 0 0.0 3.0 19833 61
r 0.290082 0 1 tcp 576 ------- 0 0.0 3.0 18225 57
+ 0.290082 1 2 tcp 576 ------- 0 0.0 3.0 18225 57
r 0.290542 0 1 tcp 576 ------- 0 0.0 3.0 18761 58
+ 0.290542 1 2 tcp 576 ------- 0 0.0 3.0 18761 58
- 0.291032 1 2 tcp 576 ------- 0 0.0 3.0 12865 42
r 0.291424 1 2 tcp 576 ------- 0 0.0 3.0 11793 39
+ 0.291424 2 3 tcp 576 ------- 0 0.0 3.0 11793 39
- 0.291424 2 3 tcp 576 ------- 0 0.0 3.0 11793 39
r 0.292277 2 3 tcp 576 ------- 0 0.0 3.0 11257 37
+ 0.292277 3 2 ack 40 ------- 0 3.0 0.0 1 62
- 0.292277 3 2 ack 40 ------- 0 3.0 0.0 1 62
r 0.292701 3 2 ack 40 ------- 0 3.0 0.0 1 59
+ 0.292701 2 1 ack 40 ------- 0 3.0 0.0 1 59
- 0.292701 2 1 ack 40 ------- 0 3.0 0.0 1 59
r 0.293413 2 1 ack 40 ------- 0 3.0 0.0 1 56
+ 0.293413 1 0 ack 40 ------- 0 3.0 0.0 1 56
- 0.293413 1 0 ack 40 ------- 0 3.0 0.0 1 56
r 0.293837 1 0 ack 40 ------- 0 3.0 0.0 1 53
+ 0.293837 0 1 tcp 576 ------- 0 0.0 3.0 20369 63
- 0.293837 0 1 tcp 576 ------- 0 0.0 3.0 20369 63
+ 0.293837 0 1 tcp 576 ------- 0 0.0 3.0 20905 64
- 0.294298 0 1 tcp 576 ------- 0 0.0 3.0 20905 64
r 0.29469 0 1 tcp 576 ------- 0 0.0 3.0 19297 60
+ 0.29469 1 2 tcp 576 ------- 0 0.0 3.0 19297 60
r 0.29515 0 1 tcp 576 ------- 0 0.0 3.0 19833 61
+ 0.29515 1 2 tcp 576 ------- 0 0.0 3.0 19833 61
- 0.29564 1 2 tcp 576 ------- 0 0.0 3.0 13401 43
r 0.296032 1 2 tcp 576 ------- 0 0.0 3.0 12329 40
+ 0.296032 2 3 tcp 576 ------- 0 0.0 3.0 12329 40
- 0.296032 2 3 tcp 576 ------- 0 0.0 3.0 12329 40
r 0.296885 2 3 tcp 576 ------- 0 0.0 3.0 11793 39
+ 0.296885 3 2 ack 40 ------- 0 3.0 0.0 1 65
- 0.296885 3 2 ack 40 ------- 0 3.0 0.0 1 65
r 0.297309 3 2 ack 40 ------- 0 3.0 0.0 1 62
+ 0.297309 2 1 ack 40 ------- 0 3.0 0.0 1 62
- 0.297309 2 1 ack 40 ------- 0 3.0 0.0 1 62
r 0.298021 2 1 ack 40 ------- 0 3.0 0.0 1 59
+ 0.298021 1 0 ack 40 ------- 0 3.0 0.0 1 59
- 0.298021 1 0 ack 40 ------- 0 3.0 0.0 1 59
r 0.298445 1 0 ack 40 ------- 0 3.0 0.0 1 56
+ 0.298445 0 1 tcp 576 ------- 0 0.0 3.0 21441 66
- 0.298445 0 1 tcp 576 ------- 0 0.0 3.0 21441 66
+ 0.298445 0 1 tcp 576 ------- 0 0.0 3.0 21977 67
- 0.298906 0 1 tcp 576 ------- 0 0.0 3.0 21977 67
r 0.299298 0 1 tcp 576 ------- 0 0.0 3.0 20369 63
+ 0.299298 1 2 tcp 576 ------- 0 0.0 3.0 20369 63
r 0.299758 0 1 tcp 576 ------- 0 0.0 3.0 20905 64
+ 0.299758 1 2 tcp 576 ------- 0 0.0 3.0 20905 64
- 0.300248 1 2 tcp 576 ------- 0 0.0 3.0 13937 45
r 0.30064 1 2 tcp 576 ------- 0 0.0 3.0 12865 42
+ 0.30064 2 3 tcp 576 ------- 0 0.0 3.0 12865 42
- 0.30064 2 3 tcp 576 ------- 0 0.0 3.0 12865 42
r 0.301493 2 3 tcp 576 ------- 0 0.0 3.0 12329 40
+ 0.301493 3 2 ack 40 ------- 0 3.0 0.0 1 68
- 0.301493 3 2 ack 40 ------- 0 3.0 0.0 1 68
r 0.301917 3 2 ack 40 ------- 0 3.0 0.0 1 65
+ 0.301917 2 1 ack 40 ------- 0 3.0 0.0 1 65
- 0.301917 2 1 ack 40 ------- 0 3.0 0.0 1 65
r 0.302629 2 1 ack 40 ------- 0 3.0 0.0 1 62
+ 0.302629 1 0 ack 40 ------- 0 3.0 0.0 1 62
- 0.302629 1 0 ack 40 ------- 0 3.0 0.0 1 62
r 0.303053 1 0 ack 40 ------- 0 3.0 0.0 1 59
+ 0.303053 0 1 tcp 576 ------- 0 0.0 3.0 22513 69
- 0.303053 0 1 tcp 576 ------- 0 0.0 3.0 22513 69
+ 0.303053 0 1 tcp 576 ------- 0 0.0 3.0 23049 70
- 0.303514 0 1 tcp 576 ------- 0 0.0 3.0 23049 70
r 0.303906 0 1 tcp 576 ------- 0 0.0 3.0 21441 66
+ 0.303906 1 2 tcp 576 ------- 0 0.0 3.0 21441 66
r 0.304366 0 1 tcp 576 ------- 0 0.0 3.0 21977 67
+ 0.304366 1 2 tcp 576 ------- 0 0.0 3.0 21977 67
- 0.304856 1 2 tcp 576 ------- 0 0.0 3.0 14473 46
r 0.305248 1 2 tcp 576 ------- 0 0.0 3.0 13401 43
+ 0.305248 2 3 tcp 576 ------- 0 0.0 3.0 13401 43
- 0.305248 2 3 tcp 576 ------- 0 0.0 3.0 13401 43
r 0.306101 2 3 tcp 576 ------- 0 0.0 3.0 12865 42
+ 0.306101 3 2 ack 40 ------- 0 3.0 0.0 1 71
- 0.306101 3 2 ack 40 ------- 0 3.0 0.0 1 71
r 0.306525 3 2 ack 40 ------- 0 3.0 0.0 1 68
+ 0.306525 2 1 ack 40 ------- 0 3.0 0.0 1 68
- 0.306525 2 1 ack 40 ------- 0 3.0 0.0 1 68
r 0.307237 2 1 ack 40 ------- 0 3.0 0.0 1 65
+ 0.307237 1 0 ack 40 ------- 0 3.0 0.0 1 65
- 0.307237 1 0 ack 40 ------- 0 3.0 0.0 1 65
r 0.307661 1 0 ack 40 ------- 0 3.0 0.0 1 62
+ 0.307661 0 1 tcp 576 ------- 0 0.0 3.0 23585 72
- 0.307661 0 1 tcp 576 ------- 0 0.0 3.0 23585 72
+ 0.307661 0 1 tcp 576 ------- 0 0.0 3.0 24121 73
- 0.308122 0 1 tcp 576 ------- 0 0.0 3.0 24121 73
r 0.308514 0 1 tcp 576 ------- 0 0.0 3.0 22513 69
+ 0.308514 1 2 tcp 576 ------- 0 0.0 3.0 22513 69
r 0.308974 0 1 tcp 576 ------- 0 0.0 3.0 23049 70
+ 0.308974 1 2 tcp 576 ------- 0 0.0 3.0 23049 70
- 0.309464 1 2 tcp 576 ------- 0 0.0 3.0 15009 48
r 0.309856 1 2 tcp 576 ------- 0 0.0 3.0 13937 45
+ 0.309856 2 3 tcp 576 ------- 0 0.0 3.0 13937 45
- 0.309856 2 3 tcp 576 ------- 0 0.0 3.0 13937 45
r 0.310709 2 3 tcp 576 ------- 0 0.0 3.0 13401 43
+ 0.310709 3 2 ack 40 ------- 0 3.0 0.0 1 74
- 0.310709 3 2 ack 40 ------- 0 3.0 0.0 1 74
r 0.311133 3 2 ack 40 ------- 0 3.0 0.0 1 71
+ 0.311133 2 1 ack 40 ------- 0 3.0 0.0 1 71
- 0.311133 2 1 ack 40 ------- 0 3.0 0.0 1 71
r 0.311845 2 1 ack 40 ------- 0 3.0 0.0 1 68
+ 0.311845 1 0 ack 40 ------- 0 3.0 0.0 1 68
- 0.311845 1 0 ack 40 ------- 0 3.0 0.0 1 68
r 0.312269 1 0 ack 40 ------- 0 3.0 0.0 1 65
+ 0.312269 0 1 tcp 576 ------- 0 0.0 3.0 24657 75
- 0.312269 0 1 tcp 576 ------- 0 0.0 3.0 24657 75
+ 0.312269 0 1 tcp 576 ------- 0 0.0 3.0 25193 76
- 0.31273 0 1 tcp 576 ------- 0 0.0 3.0 25193 76
r 0.313122 0 1 tcp 576 ------- 0 0.0 3.0 23585 72
+ 0.313122 1 2 tcp 576 ------- 0 0.0 3.0 23585 72
r 0.313582 0 1 tcp 576 ------- 0 0.0 3.0 24121 73
+ 0.313582 1 2 tcp 576 ------- 0 0.0 3.0 24121 73
- 0.314072 1 2 tcp 576 ------- 0 0.0 3.0 15545 49
r 0.314464 1 2 tcp 576 ------- 0 0.0 3.0 14473 46
+ 0.314464 2 3 tcp 576 ------- 0 0.0 3.0 14473 46
- 0.314464 2 3 tcp 576 ------- 0 0.0 3.0 14473 46
r 0.315317 2 3 tcp 576 ------- 0 0.0 3.0 13937 45
+ 0.315317 3 2 ack 40 ------- 0 3.0 0.0 1 77
- 0.315317 3 2 ack 40 ------- 0 3.0 0.0 1 77
r 0.315741 3 2 ack 40 ------- 0 3.0 0.0 1 74
+ 0.315741 2 1 ack 40 ------- 0 3.0 0.0 1 74
- 0.315741 2 1 ack 40 ------- 0 3.0 0.0 1 74
r 0.316453 2 1 ack 40 ------- 0 3.0 0.0 1 71
+ 0.316453 1 0 ack 40 ------- 0 3.0 0.0 1 71
- 0.316453 1 0 ack 40 ------- 0 3.0 0.0 1 71
r 0.316877 1 0 ack 40 ------- 0 3.0 0.0 1 68
+ 0.316877 0 1 tcp 576 ------- 0 0.0 3.0 25729 78
- 0.316877 0 1 tcp 576 ------- 0 0.0 3.0 25729 78
+ 0.316877 0 1 tcp 576 ------- 0 0.0 3.0 26265 79
- 0.317338 0 1 tcp 576 ------- 0 0.0 3.0 26265 79
r 0.31773 0 1 tcp 576 ------- 0 0.0 3.0 24657 75
+ 0.31773 1 2 tcp 576 ------- 0 0.0 3.0 24657 75
r 0.31819 0 1 tcp 576 ------- 0 0.0 3.0 25193 76
+ 0.31819 1 2 tcp 576 ------- 0 0.0 3.0 25193 76
- 0.31868 1 2 tcp 576 ------- 0 0.0 3.0 16081 51
r 0.319072 1 2 tcp 576 ------- 0 0.0 3.0 15009 48
+ 0.319072 2 3 tcp 576 ------- 0 0.0 3.0 15009 48
- 0.319072 2 3 tcp 576 ------- 0 0.0 3.0 15009 48
r 0.319925 2 3 tcp 576 ------- 0 0.0 3.0 14473 46
+ 0.319925 3 2 ack 40 ------- 0 3.0 0.0 1 80
- 0.319925 3 2 ack 40 ------- 0 3.0 0.0 1 80
r 0.320349 3 2 ack 40 ------- 0 3.0 0.0 1 77
+ 0.320349 2 1 ack 40 ------- 0 3.0 0.0 1 77
- 0.320349 2 1 ack 40 ------- 0 3.0 0.0 1 77
r 0.321061 2 1 ack 40 ------- 0 3.0 0.0 1 74
+ 0.321061 1 0 ack 40 ------- 0 3.0 0.0 1 74
- 0.321061 1 0 ack 40 ------- 0 3.0 0.0 1 74
r 0.321485 1 0 ack 40 ------- 0 3.0 0.0 1 71
+ 0.321485 0 1 tcp 576 ------- 0 0.0 3.0 26801 81
- 0.321485 0 1 tcp 576 ------- 0 0.0 3.0 26801 81
+ 0.321485 0 1 tcp 576 ------- 0 0.0 3.0 27337 82
- 0.321946 0 1 tcp 576 ------- 0 0.0 3.0 27337 82
r 0.322338 0 1 tcp 576 ------- 0 0.0 3.0 25729 78
+ 0.322338 1 2 tcp 576 ------- 0 0.0 3.0 25729 78
r 0.322798 0 1 tcp 576 ------- 0 0.0 3.0 26265 79
+ 0.322798 1 2 tcp 576 ------- 0 0.0 3.0 26265 79
- 0.323288 1 2 tcp 576 ------- 0 0.0 3.0 16617 52
r 0.32368 1 2 tcp 576 ------- 0 0.0 3.0 15545 49
+ 0.32368 2 3 tcp 576 ------- 0 0.0 3.0 15545 49
- 0.32368 2 3 tcp 576 ------- 0 0.0 3.0 15545 49
r 0.324533 2 3 tcp 576 ------- 0 0.0 3.0 15009 48
+ 0.324533 3 2 ack 40 ------- 0 3.0 0.0 1 83
- 0.324533 3 2 ack 40 ------- 0 3.0 0.0 1 83
r 0.324957 3 2 ack 40 ------- 0 3.0 0.0 1 80
+ 0.324957 2 1 ack 40 ------- 0 3.0 0.0 1 80
- 0.324957 2 1 ack 40 ------- 0 3.0 0.0 1 80
r 0.325669 2 1 ack 40 ------- 0 3.0 0.0 1 77
+ 0.325669 1 0 ack 40 ------- 0 3.0 0.0 1 77
- 0.325669 1 0 ack 40 ------- 0 3.0 0.0 1 77
r 0.326093 1 0 ack 40 ------- 0 3.0 0.0 1 74
+ 0.326093 0 1 tcp 576 ------- 0 0.0 3.0 27873 84
- 0.326093 0 1 tcp 576 ------- 0 0.0 3.0 27873 84
+ 0.326093 0 1 tcp 576 ------- 0 0.0 3.0 28409 85
- 0.326554 0 1 tcp 576 ------- 0 0.0 3.0 28409 85