+ 0.1 0 2 cbr 500 ------- 0 0.0 3.0 0 0
- 0.1 0 2 cbr 500 ------- 0 0.0 3.0 0 0
+ 0.105 0 2 cbr 500 ------- 0 0.0 3.0 1 1
- 0.105 0 2 cbr 500 ------- 0 0.0 3.0 1 1
+ 0.11 0 2 cbr 500 ------- 0 0.0 3.0 2 2
- 0.11 0 2 cbr 500 ------- 0 0.0 3.0 2 2
r 0.114 0 2 cbr 500 ------- 0 0.0 3.0 0 0
+ 0.114 2 3 cbr 500 ------- 0 0.0 3.0 0 0
- 0.114 2 3 cbr 500 ------- 0 0.0 3.0 0 0
+ 0.115 0 2 cbr 500 ------- 0 0.0 3.0 3 3
- 0.115 0 2 cbr 500 ------- 0 0.0 3.0 3 3
r 0.119 0 2 cbr 500 ------- 0 0.0 3.0 1 1
+ 0.119 2 3 cbr 500 ------- 0 0.0 3.0 1 1
- 0.119 2 3 cbr 500 ------- 0 0.0 3.0 1 1
+ 0.12 0 2 cbr 500 ------- 0 0.0 3.0 4 4
- 0.12 0 2 cbr 500 ------- 0 0.0 3.0 4 4
r 0.124 0 2 cbr 500 ------- 0 0.0 3.0 2 2
+ 0.124 2 3 cbr 500 ------- 0 0.0 3.0 2 2
- 0.124 2 3 cbr 500 ------- 0 0.0 3.0 2 2
+ 0.125 0 2 cbr 500 ------- 0 0.0 3.0 5 5
- 0.125 0 2 cbr 500 ------- 0 0.0 3.0 5 5
r 0.128 2 3 cbr 500 ------- 0 0.0 3.0 0 0
r 0.129 0 2 cbr 500 ------- 0 0.0 3.0 3 3
+ 0.129 2 3 cbr 500 ------- 0 0.0 3.0 3 3
- 0.129 2 3 cbr 500 ------- 0 0.0 3.0 3 3
+ 0.13 0 2 cbr 500 ------- 0 0.0 3.0 6 6
- 0.13 0 2 cbr 500 ------- 0 0.0 3.0 6 6
r 0.133 2 3 cbr 500 ------- 0 0.0 3.0 1 1
r 0.134 0 2 cbr 500 ------- 0 0.0 3.0 4 4
+ 0.134 2 3 cbr 500 ------- 0 0.0 3.0 4 4
- 0.134 2 3 cbr 500 ------- 0 0.0 3.0 4 4
+ 0.135 0 2 cbr 500 ------- 0 0.0 3.0 7 7
- 0.135 0 2 cbr 500 ------- 0 0.0 3.0 7 7
r 0.138 2 3 cbr 500 ------- 0 0.0 3.0 2 2
r 0.139 0 2 cbr 500 ------- 0 0.0 3.0 5 5
+ 0.139 2 3 cbr 500 ------- 0 0.0 3.0 5 5
- 0.139 2 3 cbr 500 ------- 0 0.0 3.0 5 5
+ 0.14 0 2 cbr 500 ------- 0 0.0 3.0 8 8
- 0.14 0 2 cbr 500 ------- 0 0.0 3.0 8 8
r 0.143 2 3 cbr 500 ------- 0 0.0 3.0 3 3
r 0.144 0 2 cbr 500 ------- 0 0.0 3.0 6 6
+ 0.144 2 3 cbr 500 ------- 0 0.0 3.0 6 6
- 0.144 2 3 cbr 500 ------- 0 0.0 3.0 6 6
+ 0.145 0 2 cbr 500 ------- 0 0.0 3.0 9 9
- 0.145 0 2 cbr 500 ------- 0 0.0 3.0 9 9
r 0.148 2 3 cbr 500 ------- 0 0.0 3.0 4 4
r 0.149 0 2 cbr 500 ------- 0 0.0 3.0 7 7
+ 0.149 2 3 cbr 500 ------- 0 0.0 3.0 7 7
- 0.149 2 3 cbr 500 ------- 0 0.0 3.0 7 7
+ 0.15 0 2 cbr 500 ------- 0 0.0 3.0 10 10
- 0.15 0 2 cbr 500 ------- 0 0.0 3.0 10 10
r 0.153 2 3 cbr 500 ------- 0 0.0 3.0 5 5
r 0.154 0 2 cbr 500 ------- 0 0.0 3.0 8 8
+ 0.154 2 3 cbr 500 ------- 0 0.0 3.0 8 8
- 0.154 2 3 cbr 500 ------- 0 0.0 3.0 8 8
+ 0.155 0 2 cbr 500 ------- 0 0.0 3.0 11 11
- 0.155 0 2 cbr 500 ------- 0 0.0 3.0 11 11
r 0.158 2 3 cbr 500 ------- 0 0.0 3.0 6 6
r 0.159 0 2 cbr 500 ------- 0 0.0 3.0 9 9
+ 0.159 2 3 cbr 500 ------- 0 0.0 3.0 9 9
- 0.159 2 3 cbr 500 ------- 0 0.0 3.0 9 9
+ 0.16 0 2 cbr 500 ------- 0 0.0 3.0 12 12
- 0.16 0 2 cbr 500 ------- 0 0.0 3.0 12 12
r 0.163 2 3 cbr 500 ------- 0 0.0 3.0 7 7
r 0.164 0 2 cbr 500 ------- 0 0.0 3.0 10 10
+ 0.164 2 3 cbr 500 ------- 0 0.0 3.0 10 10
- 0.164 2 3 cbr 500 ------- 0 0.0 3.0 10 10
+ 0.165 0 2 cbr 500 ------- 0 0.0 3.0 13 13
- 0.165 0 2 cbr 500 ------- 0 0.0 3.0 13 13
r 0.168 2 3 cbr 500 ------- 0 0.0 3.0 8 8
r 0.169 0 2 cbr 500 ------- 0 0.0 3.0 11 11
+ 0.169 2 3 cbr 500 ------- 0 0.0 3.0 11 11
- 0.169 2 3 cbr 500 ------- 0 0.0 3.0 11 11
+ 0.17 0 2 cbr 500 ------- 0 0.0 3.0 14 14
- 0.17 0 2 cbr 500 ------- 0 0.0 3.0 14 14
r 0.173 2 3 cbr 500 ------- 0 0.0 3.0 9 9
r 0.174 0 2 cbr 500 ------- 0 0.0 3.0 12 12
+ 0.174 2 3 cbr 500 ------- 0 0.0 3.0 12 12
- 0.174 2 3 cbr 500 ------- 0 0.0 3.0 12 12
+ 0.175 0 2 cbr 500 ------- 0 0.0 3.0 15 15
- 0.175 0 2 cbr 500 ------- 0 0.0 3.0 15 15
r 0.178 2 3 cbr 500 ------- 0 0.0 3.0 10 10
r 0.179 0 2 cbr 500 ------- 0 0.0 3.0 13 13
+ 0.179 2 3 cbr 500 ------- 0 0.0 3.0 13 13
- 0.179 2 3 cbr 500 ------- 0 0.0 3.0 13 13
+ 0.18 0 2 cbr 500 ------- 0 0.0 3.0 16 16
- 0.18 0 2 cbr 500 ------- 0 0.0 3.0 16 16
r 0.183 2 3 cbr 500 ------- 0 0.0 3.0 11 11
r 0.184 0 2 cbr 500 ------- 0 0.0 3.0 14 14
+ 0.184 2 3 cbr 500 ------- 0 0.0 3.0 14 14
- 0.184 2 3 cbr 500 ------- 0 0.0 3.0 14 14
+ 0.185 0 2 cbr 500 ------- 0 0.0 3.0 17 17
- 0.185 0 2 cbr 500 ------- 0 0.0 3.0 17 17
r 0.188 2 3 cbr 500 ------- 0 0.0 3.0 12 12
r 0.189 0 2 cbr 500 ------- 0 0.0 3.0 15 15
+ 0.189 2 3 cbr 500 ------- 0 0.0 3.0 15 15
- 0.189 2 3 cbr 500 ------- 0 0.0 3.0 15 15
+ 0.19 0 2 cbr 500 ------- 0 0.0 3.0 18 18
- 0.19 0 2 cbr 500 ------- 0 0.0 3.0 18 18
r 0.193 2 3 cbr 500 ------- 0 0.0 3.0 13 13
r 0.194 0 2 cbr 500 ------- 0 0.0 3.0 16 16
+ 0.194 2 3 cbr 500 ------- 0 0.0 3.0 16 16
- 0.194 2 3 cbr 500 ------- 0 0.0 3.0 16 16
+ 0.195 0 2 cbr 500 ------- 0 0.0 3.0 19 19
- 0.195 0 2 cbr 500 ------- 0 0.0 3.0 19 19
r 0.198 2 3 cbr 500 ------- 0 0.0 3.0 14 14
r 0.199 0 2 cbr 500 ------- 0 0.0 3.0 17 17
+ 0.199 2 3 cbr 500 ------- 0 0.0 3.0 17 17
- 0.199 2 3 cbr 500 ------- 0 0.0 3.0 17 17
+ 0.2 0 2 cbr 500 ------- 0 0.0 3.0 20 20
- 0.2 0 2 cbr 500 ------- 0 0.0 3.0 20 20
r 0.203 2 3 cbr 500 ------- 0 0.0 3.0 15 15
r 0.204 0 2 cbr 500 ------- 0 0.0 3.0 18 18
+ 0.204 2 3 cbr 500 ------- 0 0.0 3.0 18 18
- 0.204 2 3 cbr 500 ------- 0 0.0 3.0 18 18
+ 0.205 0 2 cbr 500 ------- 0 0.0 3.0 21 21
- 0.205 0 2 cbr 500 ------- 0 0.0 3.0 21 21
r 0.208 2 3 cbr 500 ------- 0 0.0 3.0 16 16
r 0.209 0 2 cbr 500 ------- 0 0.0 3.0 19 19
+ 0.209 2 3 cbr 500 ------- 0 0.0 3.0 19 19
- 0.209 2 3 cbr 500 ------- 0 0.0 3.0 19 19
+ 0.21 0 2 cbr 500 ------- 0 0.0 3.0 22 22
- 0.21 0 2 cbr 500 ------- 0 0.0 3.0 22 22
r 0.213 2 3 cbr 500 ------- 0 0.0 3.0 17 17
r 0.214 0 2 cbr 500 ------- 0 0.0 3.0 20 20
+ 0.214 2 3 cbr 500 ------- 0 0.0 3.0 20 20
- 0.214 2 3 cbr 500 ------- 0 0.0 3.0 20 20
+ 0.215 0 2 cbr 500 ------- 0 0.0 3.0 23 23
- 0.215 0 2 cbr 500 ------- 0 0.0 3.0 23 23
r 0.218 2 3 cbr 500 ------- 0 0.0 3.0 18 18
r 0.219 0 2 cbr 500 ------- 0 0.0 3.0 21 21
+ 0.219 2 3 cbr 500 ------- 0 0.0 3.0 21 21
- 0.219 2 3 cbr 500 ------- 0 0.0 3.0 21 21
+ 0.22 0 2 cbr 500 ------- 0 0.0 3.0 24 24
- 0.22 0 2 cbr 500 ------- 0 0.0 3.0 24 24
r 0.223 2 3 cbr 500 ------- 0 0.0 3.0 19 19
r 0.224 0 2 cbr 500 ------- 0 0.0 3.0 22 22
+ 0.224 2 3 cbr 500 ------- 0 0.0 3.0 22 22
- 0.224 2 3 cbr 500 ------- 0 0.0 3.0 22 22
+ 0.225 0 2 cbr 500 ------- 0 0.0 3.0 25 25
- 0.225 0 2 cbr 500 ------- 0 0.0 3.0 25 25
r 0.228 2 3 cbr 500 ------- 0 0.0 3.0 20 20
r 0.229 0 2 cbr 500 ------- 0 0.0 3.0 23 23
+ 0.229 2 3 cbr 500 ------- 0 0.0 3.0 23 23
- 0.229 2 3 cbr 500 ------- 0 0.0 3.0 23 23
+ 0.23 0 2 cbr 500 ------- 0 0.0 3.0 26 26
- 0.23 0 2 cbr 500 ------- 0 0.0 3.0 26 26
r 0.233 2 3 cbr 500 ------- 0 0.0 3.0 21 21
r 0.234 0 2 cbr 500 ------- 0 0.0 3.0 24 24
+ 0.234 2 3 cbr 500 ------- 0 0.0 3.0 24 24
- 0.234 2 3 cbr 500 ------- 0 0.0 3.0 24 24
+ 0.235 0 2 cbr 500 ------- 0 0.0 3.0 27 27
- 0.235 0 2 cbr 500 ------- 0 0.0 3.0 27 27
r 0.238 2 3 cbr 500 ------- 0 0.0 3.0 22 22
r 0.239 0 2 cbr 500 ------- 0 0.0 3.0 25 25
+ 0.239 2 3 cbr 500 ------- 0 0.0 3.0 25 25
- 0.239 2 3 cbr 500 ------- 0 0.0 3.0 25 25
+ 0.24 0 2 cbr 500 ------- 0 0.0 3.0 28 28
- 0.24 0 2 cbr 500 ------- 0 0.0 3.0 28 28
r 0.243 2 3 cbr 500 ------- 0 0.0 3.0 23 23
r 0.244 0 2 cbr 500 ------- 0 0.0 3.0 26 26
+ 0.244 2 3 cbr 500 ------- 0 0.0 3.0 26 26
- 0.244 2 3 cbr 500 ------- 0 0.0 3.0 26 26
+ 0.245 0 2 cbr 500 ------- 0 0.0 3.0 29 29
- 0.245 0 2 cbr 500 ------- 0 0.0 3.0 29 29
r 0.248 2 3 cbr 500 ------- 0 0.0 3.0 24 24
r 0.249 0 2 cbr 500 ------- 0 0.0 3.0 27 27
+ 0.249 2 3 cbr 500 ------- 0 0.0 3.0 27 27
- 0.249 2 3 cbr 500 ------- 0 0.0 3.0 27 27
+ 0.25 0 2 cbr 500 ------- 0 0.0 3.0 30 30
- 0.25 0 2 cbr 500 ------- 0 0.0 3.0 30 30
r 0.253 2 3 cbr 500 ------- 0 0.0 3.0 25 25
r 0.254 0 2 cbr 500 ------- 0 0.0 3.0 28 28
+ 0.254 2 3 cbr 500 ------- 0 0.0 3.0 28 28
- 0.254 2 3 cbr 500 ------- 0 0.0 3.0 28 28
+ 0.255 0 2 cbr 500 ------- 0 0.0 3.0 31 31
- 0.255 0 2 cbr 500 ------- 0 0.0 3.0 31 31
r 0.258 2 3 cbr 500 ------- 0 0.0 3.0 26 26
r 0.259 0 2 cbr 500 ------- 0 0.0 3.0 29 29
+ 0.259 2 3 cbr 500 ------- 0 0.0 3.0 29 29
- 0.259 2 3 cbr 500 ------- 0 0.0 3.0 29 29
+ 0.26 0 2 cbr 500 ------- 0 0.0 3.0 32 32
- 0.26 0 2 cbr 500 ------- 0 0.0 3.0 32 32
r 0.263 2 3 cbr 500 ------- 0 0.0 3.0 27 27
r 0.264 0 2 cbr 500 ------- 0 0.0 3.0 30 30
+ 0.264 2 3 cbr 500 ------- 0 0.0 3.0 30 30
- 0.264 2 3 cbr 500 ------- 0 0.0 3.0 30 30
+ 0.265 0 2 cbr 500 ------- 0 0.0 3.0 33 33
- 0.265 0 2 cbr 500 ------- 0 0.0 3.0 33 33
r 0.268 2 3 cbr 500 ------- 0 0.0 3.0 28 28
r 0.269 0 2 cbr 500 ------- 0 0.0 3.0 31 31
+ 0.269 2 3 cbr 500 ------- 0 0.0 3.0 31 31
- 0.269 2 3 cbr 500 ------- 0 0.0 3.0 31 31
+ 0.27 0 2 cbr 500 ------- 0 0.0 3.0 34 34
- 0.27 0 2 cbr 500 ------- 0 0.0 3.0 34 34
r 0.273 2 3 cbr 500 ------- 0 0.0 3.0 29 29
r 0.274 0 2 cbr 500 ------- 0 0.0 3.0 32 32
+ 0.274 2 3 cbr 500 ------- 0 0.0 3.0 32 32
- 0.274 2 3 cbr 500 ------- 0 0.0 3.0 32 32
+ 0.275 0 2 cbr 500 ------- 0 0.0 3.0 35 35
- 0.275 0 2 cbr 500 ------- 0 0.0 3.0 35 35
r 0.278 2 3 cbr 500 ------- 0 0.0 3.0 30 30
r 0.279 0 2 cbr 500 ------- 0 0.0 3.0 33 33
+ 0.279 2 3 cbr 500 ------- 0 0.0 3.0 33 33
- 0.279 2 3 cbr 500 ------- 0 0.0 3.0 33 33
+ 0.28 0 2 cbr 500 ------- 0 0.0 3.0 36 36
- 0.28 0 2 cbr 500 ------- 0 0.0 3.0 36 36
r 0.283 2 3 cbr 500 ------- 0 0.0 3.0 31 31
r 0.284 0 2 cbr 500 ------- 0 0.0 3.0 34 34
+ 0.284 2 3 cbr 500 ------- 0 0.0 3.0 34 34
- 0.284 2 3 cbr 500 ------- 0 0.0 3.0 34 34
+ 0.285 0 2 cbr 500 ------- 0 0.0 3.0 37 37
- 0.285 0 2 cbr 500 ------- 0 0.0 3.0 37 37
r 0.288 2 3 cbr 500 ------- 0 0.0 3.0 32 32
r 0.289 0 2 cbr 500 ------- 0 0.0 3.0 35 35
+ 0.289 2 3 cbr 500 ------- 0 0.0 3.0 35 35
- 0.289 2 3 cbr 500 ------- 0 0.0 3.0 35 35
+ 0.29 0 2 cbr 500 ------- 0 0.0 3.0 38 38
- 0.29 0 2 cbr 500 ------- 0 0.0 3.0 38 38
r 0.293 2 3 cbr 500 ------- 0 0.0 3.0 33 33
r 0.294 0 2 cbr 500 ------- 0 0.0 3.0 36 36
+ 0.294 2 3 cbr 500 ------- 0 0.0 3.0 36 36
- 0.294 2 3 cbr 500 ------- 0 0.0 3.0 36 36
+ 0.295 0 2 cbr 500 ------- 0 0.0 3.0 39 39
- 0.295 0 2 cbr 500 ------- 0 0.0 3.0 39 39
r 0.298 2 3 cbr 500 ------- 0 0.0 3.0 34 34
r 0.299 0 2 cbr 500 ------- 0 0.0 3.0 37 37
+ 0.299 2 3 cbr 500 ------- 0 0.0 3.0 37 37
- 0.299 2 3 cbr 500 ------- 0 0.0 3.0 37 37
+ 0.3 0 2 cbr 500 ------- 0 0.0 3.0 40 40
- 0.3 0 2 cbr 500 ------- 0 0.0 3.0 40 40
r 0.303 2 3 cbr 500 ------- 0 0.0 3.0 35 35
r 0.304 0 2 cbr 500 ------- 0 0.0 3.0 38 38
+ 0.304 2 3 cbr 500 ------- 0 0.0 3.0 38 38
- 0.304 2 3 cbr 500 ------- 0 0.0 3.0 38 38
+ 0.305 0 2 cbr 500 ------- 0 0.0 3.0 41 41
- 0.305 0 2 cbr 500 ------- 0 0.0 3.0 41 41
r 0.308 2 3 cbr 500 ------- 0 0.0 3.0 36 36
r 0.309 0 2 cbr 500 ------- 0 0.0 3.0 39 39
+ 0.309 2 3 cbr 500 ------- 0 0.0 3.0 39 39
- 0.309 2 3 cbr 500 ------- 0 0.0 3.0 39 39
+ 0.31 0 2 cbr 500 ------- 0 0.0 3.0 42 42
- 0.31 0 2 cbr 500 ------- 0 0.0 3.0 42 42
r 0.313 2 3 cbr 500 ------- 0 0.0 3.0 37 37
r 0.314 0 2 cbr 500 ------- 0 0.0 3.0 40 40
+ 0.314 2 3 cbr 500 ------- 0 0.0 3.0 40 40
- 0.314 2 3 cbr 500 ------- 0 0.0 3.0 40 40
+ 0.315 0 2 cbr 500 ------- 0 0.0 3.0 43 43
- 0.315 0 2 cbr 500 ------- 0 0.0 3.0 43 43
r 0.318 2 3 cbr 500 ------- 0 0.0 3.0 38 38
r 0.319 0 2 cbr 500 ------- 0 0.0 3.0 41 41
+ 0.319 2 3 cbr 500 ------- 0 0.0 3.0 41 41
- 0.319 2 3 cbr 500 ------- 0 0.0 3.0 41 41
+ 0.32 0 2 cbr 500 ------- 0 0.0 3.0 44 44
- 0.32 0 2 cbr 500 ------- 0 0.0 3.0 44 44
r 0.323 2 3 cbr 500 ------- 0 0.0 3.0 39 39
r 0.324 0 2 cbr 500 ------- 0 0.0 3.0 42 42
+ 0.324 2 3 cbr 500 ------- 0 0.0 3.0 42 42
- 0.324 2 3 cbr 500 ------- 0 0.0 3.0 42 42
+ 0.325 0 2 cbr 500 ------- 0 0.0 3.0 45 45
- 0.325 0 2 cbr 500 ------- 0 0.0 3.0 45 45
r 0.328 2 3 cbr 500 ------- 0 0.0 3.0 40 40
r 0.329 0 2 cbr 500 ------- 0 0.0 3.0 43 43
+ 0.329 2 3 cbr 500 ------- 0 0.0 3.0 43 43
- 0.329 2 3 cbr 500 ------- 0 0.0 3.0 43 43
+ 0.33 0 2 cbr 500 ------- 0 0.0 3.0 46 46
- 0.33 0 2 cbr 500 ------- 0 0.0 3.0 46 46
r 0.333 2 3 cbr 500 ------- 0 0.0 3.0 41 41
r 0.334 0 2 cbr 500 ------- 0 0.0 3.0 44 44
+ 0.334 2 3 cbr 500 ------- 0 0.0 3.0 44 44
- 0.334 2 3 cbr 500 ------- 0 0.0 3.0 44 44
+ 0.335 0 2 cbr 500 ------- 0 0.0 3.0 47 47
- 0.335 0 2 cbr 500 ------- 0 0.0 3.0 47 47
r 0.338 2 3 cbr 500 ------- 0 0.0 3.0 42 42
r 0.339 0 2 cbr 500 ------- 0 0.0 3.0 45 45
+ 0.339 2 3 cbr 500 ------- 0 0.0 3.0 45 45
- 0.339 2 3 cbr 500 ------- 0 0.0 3.0 45 45
+ 0.34 0 2 cbr 500 ------- 0 0.0 3.0 48 48
- 0.34 0 2 cbr 500 ------- 0 0.0 3.0 48 48
r 0.343 2 3 cbr 500 ------- 0 0.0 3.0 43 43
r 0.344 0 2 cbr 500 ------- 0 0.0 3.0 46 46
+ 0.344 2 3 cbr 500 ------- 0 0.0 3.0 46 46
- 0.344 2 3 cbr 500 ------- 0 0.0 3.0 46 46
+ 0.345 0 2 cbr 500 ------- 0 0.0 3.0 49 49
- 0.345 0 2 cbr 500 ------- 0 0.0 3.0 49 49
r 0.348 2 3 cbr 500 ------- 0 0.0 3.0 44 44
r 0.349 0 2 cbr 500 ------- 0 0.0 3.0 47 47
+ 0.349 2 3 cbr 500 ------- 0 0.0 3.0 47 47
- 0.349 2 3 cbr 500 ------- 0 0.0 3.0 47 47
+ 0.35 0 2 cbr 500 ------- 0 0.0 3.0 50 50
- 0.35 0 2 cbr 500 ------- 0 0.0 3.0 50 50
r 0.353 2 3 cbr 500 ------- 0 0.0 3.0 45 45
r 0.354 0 2 cbr 500 ------- 0 0.0 3.0 48 48
+ 0.354 2 3 cbr 500 ------- 0 0.0 3.0 48 48
- 0.354 2 3 cbr 500 ------- 0 0.0 3.0 48 48
+ 0.355 0 2 cbr 500 ------- 0 0.0 3.0 51 51
- 0.355 0 2 cbr 500 ------- 0 0.0 3.0 51 51
r 0.358 2 3 cbr 500 ------- 0 0.0 3.0 46 46
r 0.359 0 2 cbr 500 ------- 0 0.0 3.0 49 49
+ 0.359 2 3 cbr 500 ------- 0 0.0 3.0 49 49
- 0.359 2 3 cbr 500 ------- 0 0.0 3.0 49 49
+ 0.36 0 2 cbr 500 ------- 0 0.0 3.0 52 52
- 0.36 0 2 cbr 500 ------- 0 0.0 3.0 52 52
r 0.363 2 3 cbr 500 ------- 0 0.0 3.0 47 47
r 0.364 0 2 cbr 500 ------- 0 0.0 3.0 50 50
+ 0.364 2 3 cbr 500 ------- 0 0.0 3.0 50 50
- 0.364 2 3 cbr 500 ------- 0 0.0 3.0 50 50
+ 0.365 0 2 cbr 500 ------- 0 0.0 3.0 53 53
- 0.365 0 2 cbr 500 ------- 0 0.0 3.0 53 53
r 0.368 2 3 cbr 500 ------- 0 0.0 3.0 48 48
r 0.369 0 2 cbr 500 ------- 0 0.0 3.0 51 51
+ 0.369 2 3 cbr 500 ------- 0 0.0 3.0 51 51
- 0.369 2 3 cbr 500 ------- 0 0.0 3.0 51 51
+ 0.37 0 2 cbr 500 ------- 0 0.0 3.0 54 54
- 0.37 0 2 cbr 500 ------- 0 0.0 3.0 54 54
r 0.373 2 3 cbr 500 ------- 0 0.0 3.0 49 49
r 0.374 0 2 cbr 500 ------- 0 0.0 3.0 52 52
+ 0.374 2 3 cbr 500 ------- 0 0.0 3.0 52 52
- 0.374 2 3 cbr 500 ------- 0 0.0 3.0 52 52
+ 0.375 0 2 cbr 500 ------- 0 0.0 3.0 55 55
- 0.375 0 2 cbr 500 ------- 0 0.0 3.0 55 55
r 0.378 2 3 cbr 500 ------- 0 0.0 3.0 50 50
r 0.379 0 2 cbr 500 ------- 0 0.0 3.0 53 53
+ 0.379 2 3 cbr 500 ------- 0 0.0 3.0 53 53
- 0.379 2 3 cbr 500 ------- 0 0.0 3.0 53 53
+ 0.38 0 2 cbr 500 ------- 0 0.0 3.0 56 56
- 0.38 0 2 cbr 500 ------- 0 0.0 3.0 56 56
r 0.383 2 3 cbr 500 ------- 0 0.0 3.0 51 51
r 0.384 0 2 cbr 500 ------- 0 0.0 3.0 54 54
+ 0.384 2 3 cbr 500 ------- 0 0.0 3.0 54 54
- 0.384 2 3 cbr 500 ------- 0 0.0 3.0 54 54
+ 0.385 0 2 cbr 500 ------- 0 0.0 3.0 57 57
- 0.385 0 2 cbr 500 ------- 0 0.0 3.0 57 57
r 0.388 2 3 cbr 500 ------- 0 0.0 3.0 52 52
r 0.389 0 2 cbr 500 ------- 0 0.0 3.0 55 55
+ 0.389 2 3 cbr 500 ------- 0 0.0 3.0 55 55
- 0.389 2 3 cbr 500 ------- 0 0.0 3.0 55 55
+ 0.39 0 2 cbr 500 ------- 0 0.0 3.0 58 58
- 0.39 0 2 cbr 500 ------- 0 0.0 3.0 58 58
r 0.393 2 3 cbr 500 ------- 0 0.0 3.0 53 53
r 0.394 0 2 cbr 500 ------- 0 0.0 3.0 56 56
+ 0.394 2 3 cbr 500 ------- 0 0.0 3.0 56 56
- 0.394 2 3 cbr 500 ------- 0 0.0 3.0 56 56
+ 0.395 0 2 cbr 500 ------- 0 0.0 3.0 59 59
- 0.395 0 2 cbr 500 ------- 0 0.0 3.0 59 59
r 0.398 2 3 cbr 500 ------- 0 0.0 3.0 54 54
r 0.399 0 2 cbr 500 ------- 0 0.0 3.0 57 57
+ 0.399 2 3 cbr 500 ------- 0 0.0 3.0 57 57
- 0.399 2 3 cbr 500 ------- 0 0.0 3.0 57 57
+ 0.4 0 2 cbr 500 ------- 0 0.0 3.0 60 60
- 0.4 0 2 cbr 500 ------- 0 0.0 3.0 60 60
r 0.403 2 3 cbr 500 ------- 0 0.0 3.0 55 55
r 0.404 0 2 cbr 500 ------- 0 0.0 3.0 58 58
+ 0.404 2 3 cbr 500 ------- 0 0.0 3.0 58 58
- 0.404 2 3 cbr 500 ------- 0 0.0 3.0 58 58
+ 0.405 0 2 cbr 500 ------- 0 0.0 3.0 61 61
- 0.405 0 2 cbr 500 ------- 0 0.0 3.0 61 61
r 0.408 2 3 cbr 500 ------- 0 0.0 3.0 56 56
r 0.409 0 2 cbr 500 ------- 0 0.0 3.0 59 59
+ 0.409 2 3 cbr 500 ------- 0 0.0 3.0 59 59
- 0.409 2 3 cbr 500 ------- 0 0.0 3.0 59 59
+ 0.41 0 2 cbr 500 ------- 0 0.0 3.0 62 62
- 0.41 0 2 cbr 500 ------- 0 0.0 3.0 62 62
r 0.413 2 3 cbr 500 ------- 0 0.0 3.0 57 57
r 0.414 0 2 cbr 500 ------- 0 0.0 3.0 60 60
+ 0.414 2 3 cbr 500 ------- 0 0.0 3.0 60 60
- 0.414 2 3 cbr 500 ------- 0 0.0 3.0 60 60
+ 0.415 0 2 cbr 500 ------- 0 0.0 3.0 63 63
- 0.415 0 2 cbr 500 ------- 0 0.0 3.0 63 63
r 0.418 2 3 cbr 500 ------- 0 0.0 3.0 58 58
r 0.419 0 2 cbr 500 ------- 0 0.0 3.0 61 61
+ 0.419 2 3 cbr 500 ------- 0 0.0 3.0 61 61
- 0.419 2 3 cbr 500 ------- 0 0.0 3.0 61 61
+ 0.42 0 2 cbr 500 ------- 0 0.0 3.0 64 64
- 0.42 0 2 cbr 500 ------- 0 0.0 3.0 64 64
r 0.423 2 3 cbr 500 ------- 0 0.0 3.0 59 59
r 0.424 0 2 cbr 500 ------- 0 0.0 3.0 62 62
+ 0.424 2 3 cbr 500 ------- 0 0.0 3.0 62 62
- 0.424 2 3 cbr 500 ------- 0 0.0 3.0 62 62
+ 0.425 0 2 cbr 500 ------- 0 0.0 3.0 65 65
- 0.425 0 2 cbr 500 ------- 0 0.0 3.0 65 65
r 0.428 2 3 cbr 500 ------- 0 0.0 3.0 60 60
r 0.429 0 2 cbr 500 ------- 0 0.0 3.0 63 63
+ 0.429 2 3 cbr 500 ------- 0 0.0 3.0 63 63
- 0.429 2 3 cbr 500 ------- 0 0.0 3.0 63 63
+ 0.43 0 2 cbr 500 ------- 0 0.0 3.0 66 66
- 0.43 0 2 cbr 500 ------- 0 0.0 3.0 66 66
r 0.433 2 3 cbr 500 ------- 0 0.0 3.0 61 61
r 0.434 0 2 cbr 500 ------- 0 0.0 3.0 64 64
+ 0.434 2 3 cbr 500 ------- 0 0.0 3.0 64 64
- 0.434 2 3 cbr 500 ------- 0 0.0 3.0 64 64
+ 0.435 0 2 cbr 500 ------- 0 0.0 3.0 67 67
- 0.435 0 2 cbr 500 ------- 0 0.0 3.0 67 67
r 0.438 2 3 cbr 500 ------- 0 0.0 3.0 62 62
r 0.439 0 2 cbr 500 ------- 0 0.0 3.0 65 65
+ 0.439 2 3 cbr 500 ------- 0 0.0 3.0 65 65
- 0.439 2 3 cbr 500 ------- 0 0.0 3.0 65 65
+ 0.44 0 2 cbr 500 ------- 0 0.0 3.0 68 68
- 0.44 0 2 cbr 500 ------- 0 0.0 3.0 68 68
r 0.443 2 3 cbr 500 ------- 0 0.0 3.0 63 63
r 0.444 0 2 cbr 500 ------- 0 0.0 3.0 66 66
+ 0.444 2 3 cbr 500 ------- 0 0.0 3.0 66 66
- 0.444 2 3 cbr 500 ------- 0 0.0 3.0 66 66
+ 0.445 0 2 cbr 500 ------- 0 0.0 3.0 69 69
- 0.445 0 2 cbr 500 ------- 0 0.0 3.0 69 69
r 0.448 2 3 cbr 500 ------- 0 0.0 3.0 64 64
r 0.449 0 2 cbr 500 ------- 0 0.0 3.0 67 67
+ 0.449 2 3 cbr 500 ------- 0 0.0 3.0 67 67
- 0.449 2 3 cbr 500 ------- 0 0.0 3.0 67 67
+ 0.45 0 2 cbr 500 ------- 0 0.0 3.0 70 70
- 0.45 0 2 cbr 500 ------- 0 0.0 3.0 70 70
r 0.453 2 3 cbr 500 ------- 0 0.0 3.0 65 65
r 0.454 0 2 cbr 500 ------- 0 0.0 3.0 68 68
+ 0.454 2 3 cbr 500 ------- 0 0.0 3.0 68 68
- 0.454 2 3 cbr 500 ------- 0 0.0 3.0 68 68
+ 0.455 0 2 cbr 500 ------- 0 0.0 3.0 71 71
- 0.455 0 2 cbr 500 ------- 0 0.0 3.0 71 71
r 0.458 2 3 cbr 500 ------- 0 0.0 3.0 66 66
r 0.459 0 2 cbr 500 ------- 0 0.0 3.0 69 69
+ 0.459 2 3 cbr 500 ------- 0 0.0 3.0 69 69
- 0.459 2 3 cbr 500 ------- 0 0.0 3.0 69 69
+ 0.46 0 2 cbr 500 ------- 0 0.0 3.0 72 72
- 0.46 0 2 cbr 500 ------- 0 0.0 3.0 72 72
r 0.463 2 3 cbr 500 ------- 0 0.0 3.0 67 67
r 0.464 0 2 cbr 500 ------- 0 0.0 3.0 70 70
+ 0.464 2 3 cbr 500 ------- 0 0.0 3.0 70 70
- 0.464 2 3 cbr 500 ------- 0 0.0 3.0 70 70
+ 0.465 0 2 cbr 500 ------- 0 0.0 3.0 73 73
- 0.465 0 2 cbr 500 ------- 0 0.0 3.0 73 73
r 0.468 2 3 cbr 500 ------- 0 0.0 3.0 68 68
r 0.469 0 2 cbr 500 ------- 0 0.0 3.0 71 71
+ 0.469 2 3 cbr 500 ------- 0 0.0 3.0 71 71
- 0.469 2 3 cbr 500 ------- 0 0.0 3.0 71 71
+ 0.47 0 2 cbr 500 ------- 0 0.0 3.0 74 74
- 0.47 0 2 cbr 500 ------- 0 0.0 3.0 74 74
r 0.473 2 3 cbr 500 ------- 0 0.0 3.0 69 69
r 0.474 0 2 cbr 500 ------- 0 0.0 3.0 72 72
+ 0.474 2 3 cbr 500 ------- 0 0.0 3.0 72 72
- 0.474 2 3 cbr 500 ------- 0 0.0 3.0 72 72
+ 0.475 0 2 cbr 500 ------- 0 0.0 3.0 75 75
- 0.475 0 2 cbr 500 ------- 0 0.0 3.0 75 75
r 0.478 2 3 cbr 500 ------- 0 0.0 3.0 70 70
r 0.479 0 2 cbr 500 ------- 0 0.0 3.0 73 73
+ 0.479 2 3 cbr 500 ------- 0 0.0 3.0 73 73
- 0.479 2 3 cbr 500 ------- 0 0.0 3.0 73 73
+ 0.48 0 2 cbr 500 ------- 0 0.0 3.0 76 76
- 0.48 0 2 cbr 500 ------- 0 0.0 3.0 76 76
r 0.483 2 3 cbr 500 ------- 0 0.0 3.0 71 71
r 0.484 0 2 cbr 500 ------- 0 0.0 3.0 74 74
+ 0.484 2 3 cbr 500 ------- 0 0.0 3.0 74 74
- 0.484 2 3 cbr 500 ------- 0 0.0 3.0 74 74
+ 0.485 0 2 cbr 500 ------- 0 0.0 3.0 77 77
- 0.485 0 2 cbr 500 ------- 0 0.0 3.0 77 77
r 0.488 2 3 cbr 500 ------- 0 0.0 3.0 72 72
r 0.489 0 2 cbr 500 ------- 0 0.0 3.0 75 75
+ 0.489 2 3 cbr 500 ------- 0 0.0 3.0 75 75
- 0.489 2 3 cbr 500 ------- 0 0.0 3.0 75 75
+ 0.49 0 2 cbr 500 ------- 0 0.0 3.0 78 78
- 0.49 0 2 cbr 500 ------- 0 0.0 3.0 78 78
r 0.493 2 3 cbr 500 ------- 0 0.0 3.0 73 73
r 0.494 0 2 cbr 500 ------- 0 0.0 3.0 76 76
+ 0.494 2 3 cbr 500 ------- 0 0.0 3.0 76 76
- 0.494 2 3 cbr 500 ------- 0 0.0 3.0 76 76
+ 0.495 0 2 cbr 500 ------- 0 0.0 3.0 79 79
- 0.495 0 2 cbr 500 ------- 0 0.0 3.0 79 79
r 0.498 2 3 cbr 500 ------- 0 0.0 3.0 74 74
r 0.499 0 2 cbr 500 ------- 0 0.0 3.0 77 77
+ 0.499 2 3 cbr 500 ------- 0 0.0 3.0 77 77
- 0.499 2 3 cbr 500 ------- 0 0.0 3.0 77 77
+ 0.5 1 2 cbr 500 ------- 1 1.0 3.0 0 80
- 0.5 1 2 cbr 500 ------- 1 1.0 3.0 0 80
+ 0.5 0 2 cbr 500 ------- 0 0.0 3.0 80 81
- 0.5 0 2 cbr 500 ------- 0 0.0 3.0 80 81
r 0.503 2 3 cbr 500 ------- 0 0.0 3.0 75 75
r 0.504 0 2 cbr 500 ------- 0 0.0 3.0 78 78
+ 0.504 2 3 cbr 500 ------- 0 0.0 3.0 78 78
- 0.504 2 3 cbr 500 ------- 0 0.0 3.0 78 78
+ 0.505 1 2 cbr 500 ------- 1 1.0 3.0 1 82
- 0.505 1 2 cbr 500 ------- 1 1.0 3.0 1 82
+ 0.505 0 2 cbr 500 ------- 0 0.0 3.0 81 83
- 0.505 0 2 cbr 500 ------- 0 0.0 3.0 81 83
r 0.508 2 3 cbr 500 ------- 0 0.0 3.0 76 76
r 0.509 0 2 cbr 500 ------- 0 0.0 3.0 79 79
+ 0.509 2 3 cbr 500 ------- 0 0.0 3.0 79 79
- 0.509 2 3 cbr 500 ------- 0 0.0 3.0 79 79
+ 0.51 1 2 cbr 500 ------- 1 1.0 3.0 2 84
- 0.51 1 2 cbr 500 ------- 1 1.0 3.0 2 84
+ 0.51 0 2 cbr 500 ------- 0 0.0 3.0 82 85
- 0.51 0 2 cbr 500 ------- 0 0.0 3.0 82 85
r 0.513 2 3 cbr 500 ------- 0 0.0 3.0 77 77
r 0.514 1 2 cbr 500 ------- 1 1.0 3.0 0 80
+ 0.514 2 3 cbr 500 ------- 1 1.0 3.0 0 80
- 0.514 2 3 cbr 500 ------- 1 1.0 3.0 0 80
r 0.514 0 2 cbr 500 ------- 0 0.0 3.0 80 81
+ 0.514 2 3 cbr 500 ------- 0 0.0 3.0 80 81
+ 0.515 1 2 cbr 500 ------- 1 1.0 3.0 3 86
- 0.515 1 2 cbr 500 ------- 1 1.0 3.0 3 86
+ 0.515 0 2 cbr 500 ------- 0 0.0 3.0 83 87
- 0.515 0 2 cbr 500 ------- 0 0.0 3.0 83 87
- 0.518 2 3 cbr 500 ------- 0 0.0 3.0 80 81
r 0.518 2 3 cbr 500 ------- 0 0.0 3.0 78 78
r 0.519 1 2 cbr 500 ------- 1 1.0 3.0 1 82
+ 0.519 2 3 cbr 500 ------- 1 1.0 3.0 1 82
r 0.519 0 2 cbr 500 ------- 0 0.0 3.0 81 83
+ 0.519 2 3 cbr 500 ------- 0 0.0 3.0 81 83
+ 0.52 1 2 cbr 500 ------- 1 1.0 3.0 4 88
- 0.52 1 2 cbr 500 ------- 1 1.0 3.0 4 88
+ 0.52 0 2 cbr 500 ------- 0 0.0 3.0 84 89
- 0.52 0 2 cbr 500 ------- 0 0.0 3.0 84 89
- 0.522 2 3 cbr 500 ------- 1 1.0 3.0 1 82
r 0.523 2 3 cbr 500 ------- 0 0.0 3.0 79 79
r 0.524 1 2 cbr 500 ------- 1 1.0 3.0 2 84
+ 0.524 2 3 cbr 500 ------- 1 1.0 3.0 2 84
r 0.524 0 2 cbr 500 ------- 0 0.0 3.0 82 85
+ 0.524 2 3 cbr 500 ------- 0 0.0 3.0 82 85
+ 0.525 1 2 cbr 500 ------- 1 1.0 3.0 5 90
- 0.525 1 2 cbr 500 ------- 1 1.0 3.0 5 90
+ 0.525 0 2 cbr 500 ------- 0 0.0 3.0 85 91
- 0.525 0 2 cbr 500 ------- 0 0.0 3.0 85 91
- 0.526 2 3 cbr 500 ------- 0 0.0 3.0 81 83
r 0.528 2 3 cbr 500 ------- 1 1.0 3.0 0 80
r 0.529 1 2 cbr 500 ------- 1 1.0 3.0 3 86
+ 0.529 2 3 cbr 500 ------- 1 1.0 3.0 3 86
r 0.529 0 2 cbr 500 ------- 0 0.0 3.0 83 87
+ 0.529 2 3 cbr 500 ------- 0 0.0 3.0 83 87
+ 0.53 1 2 cbr 500 ------- 1 1.0 3.0 6 92
- 0.53 1 2 cbr 500 ------- 1 1.0 3.0 6 92
- 0.53 2 3 cbr 500 ------- 1 1.0 3.0 2 84
+ 0.53 0 2 cbr 500 ------- 0 0.0 3.0 86 93
- 0.53 0 2 cbr 500 ------- 0 0.0 3.0 86 93
r 0.532 2 3 cbr 500 ------- 0 0.0 3.0 80 81
r 0.534 1 2 cbr 500 ------- 1 1.0 3.0 4 88
+ 0.534 2 3 cbr 500 ------- 1 1.0 3.0 4 88
- 0.534 2 3 cbr 500 ------- 0 0.0 3.0 82 85
r 0.534 0 2 cbr 500 ------- 0 0.0 3.0 84 89
+ 0.534 2 3 cbr 500 ------- 0 0.0 3.0 84 89
+ 0.535 1 2 cbr 500 ------- 1 1.0 3.0 7 94
- 0.535 1 2 cbr 500 ------- 1 1.0 3.0 7 94
+ 0.535 0 2 cbr 500 ------- 0 0.0 3.0 87 95
- 0.535 0 2 cbr 500 ------- 0 0.0 3.0 87 95
r 0.536 2 3 cbr 500 ------- 1 1.0 3.0 1 82
- 0.538 2 3 cbr 500 ------- 1 1.0 3.0 3 86
r 0.539 1 2 cbr 500 ------- 1 1.0 3.0 5 90
+ 0.539 2 3 cbr 500 ------- 1 1.0 3.0 5 90
r 0.539 0 2 cbr 500 ------- 0 0.0 3.0 85 91
+ 0.539 2 3 cbr 500 ------- 0 0.0 3.0 85 91
r 0.54 2 3 cbr 500 ------- 0 0.0 3.0 81 83
+ 0.54 1 2 cbr 500 ------- 1 1.0 3.0 8 96
- 0.54 1 2 cbr 500 ------- 1 1.0 3.0 8 96
+ 0.54 0 2 cbr 500 ------- 0 0.0 3.0 88 97
- 0.54 0 2 cbr 500 ------- 0 0.0 3.0 88 97
- 0.542 2 3 cbr 500 ------- 0 0.0 3.0 83 87
r 0.544 1 2 cbr 500 ------- 1 1.0 3.0 6 92
+ 0.544 2 3 cbr 500 ------- 1 1.0 3.0 6 92
r 0.544 2 3 cbr 500 ------- 1 1.0 3.0 2 84
r 0.544 0 2 cbr 500 ------- 0 0.0 3.0 86 93
+ 0.544 2 3 cbr 500 ------- 0 0.0 3.0 86 93
+ 0.545 1 2 cbr 500 ------- 1 1.0 3.0 9 98
- 0.545 1 2 cbr 500 ------- 1 1.0 3.0 9 98
+ 0.545 0 2 cbr 500 ------- 0 0.0 3.0 89 99
- 0.545 0 2 cbr 500 ------- 0 0.0 3.0 89 99
- 0.546 2 3 cbr 500 ------- 1 1.0 3.0 4 88
r 0.548 2 3 cbr 500 ------- 0 0.0 3.0 82 85
r 0.549 1 2 cbr 500 ------- 1 1.0 3.0 7 94
+ 0.549 2 3 cbr 500 ------- 1 1.0 3.0 7 94
r 0.549 0 2 cbr 500 ------- 0 0.0 3.0 87 95
+ 0.549 2 3 cbr 500 ------- 0 0.0 3.0 87 95
+ 0.55 1 2 cbr 500 ------- 1 1.0 3.0 10 100
- 0.55 1 2 cbr 500 ------- 1 1.0 3.0 10 100
- 0.55 2 3 cbr 500 ------- 0 0.0 3.0 84 89
+ 0.55 0 2 cbr 500 ------- 0 0.0 3.0 90 101
- 0.55 0 2 cbr 500 ------- 0 0.0 3.0 90 101
r 0.552 2 3 cbr 500 ------- 1 1.0 3.0 3 86
r 0.554 1 2 cbr 500 ------- 1 1.0 3.0 8 96
+ 0.554 2 3 cbr 500 ------- 1 1.0 3.0 8 96
- 0.554 2 3 cbr 500 ------- 1 1.0 3.0 5 90
r 0.554 0 2 cbr 500 ------- 0 0.0 3.0 88 97
+ 0.554 2 3 cbr 500 ------- 0 0.0 3.0 88 97
+ 0.555 1 2 cbr 500 ------- 1 1.0 3.0 11 102
- 0.555 1 2 cbr 500 ------- 1 1.0 3.0 11 102
+ 0.555 0 2 cbr 500 ------- 0 0.0 3.0 91 103
- 0.555 0 2 cbr 500 ------- 0 0.0 3.0 91 103
r 0.556 2 3 cbr 500 ------- 0 0.0 3.0 83 87
- 0.558 2 3 cbr 500 ------- 0 0.0 3.0 85 91
r 0.559 1 2 cbr 500 ------- 1 1.0 3.0 9 98
+ 0.559 2 3 cbr 500 ------- 1 1.0 3.0 9 98
r 0.559 0 2 cbr 500 ------- 0 0.0 3.0 89 99
+ 0.559 2 3 cbr 500 ------- 0 0.0 3.0 89 99
r 0.56 2 3 cbr 500 ------- 1 1.0 3.0 4 88
+ 0.56 1 2 cbr 500 ------- 1 1.0 3.0 12 104
- 0.56 1 2 cbr 500 ------- 1 1.0 3.0 12 104
+ 0.56 0 2 cbr 500 ------- 0 0.0 3.0 92 105
- 0.56 0 2 cbr 500 ------- 0 0.0 3.0 92 105
- 0.562 2 3 cbr 500 ------- 1 1.0 3.0 6 92
r 0.564 1 2 cbr 500 ------- 1 1.0 3.0 10 100
+ 0.564 2 3 cbr 500 ------- 1 1.0 3.0 10 100
r 0.564 2 3 cbr 500 ------- 0 0.0 3.0 84 89
r 0.564 0 2 cbr 500 ------- 0 0.0 3.0 90 101
+ 0.564 2 3 cbr 500 ------- 0 0.0 3.0 90 101
+ 0.565 1 2 cbr 500 ------- 1 1.0 3.0 13 106
- 0.565 1 2 cbr 500 ------- 1 1.0 3.0 13 106
+ 0.565 0 2 cbr 500 ------- 0 0.0 3.0 93 107
- 0.565 0 2 cbr 500 ------- 0 0.0 3.0 93 107
- 0.566 2 3 cbr 500 ------- 0 0.0 3.0 86 93
r 0.568 2 3 cbr 500 ------- 1 1.0 3.0 5 90
r 0.569 1 2 cbr 500 ------- 1 1.0 3.0 11 102
+ 0.569 2 3 cbr 500 ------- 1 1.0 3.0 11 102
r 0.569 0 2 cbr 500 ------- 0 0.0 3.0 91 103
+ 0.569 2 3 cbr 500 ------- 0 0.0 3.0 91 103
+ 0.57 1 2 cbr 500 ------- 1 1.0 3.0 14 108
- 0.57 1 2 cbr 500 ------- 1 1.0 3.0 14 108
- 0.57 2 3 cbr 500 ------- 1 1.0 3.0 7 94
+ 0.57 0 2 cbr 500 ------- 0 0.0 3.0 94 109
- 0.57 0 2 cbr 500 ------- 0 0.0 3.0 94 109
r 0.572 2 3 cbr 500 ------- 0 0.0 3.0 85 91
r 0.574 1 2 cbr 500 ------- 1 1.0 3.0 12 104
+ 0.574 2 3 cbr 500 ------- 1 1.0 3.0 12 104
- 0.574 2 3 cbr 500 ------- 0 0.0 3.0 87 95
r 0.574 0 2 cbr 500 ------- 0 0.0 3.0 92 105
+ 0.574 2 3 cbr 500 ------- 0 0.0 3.0 92 105
+ 0.575 1 2 cbr 500 ------- 1 1.0 3.0 15 110
- 0.575 1 2 cbr 500 ------- 1 1.0 3.0 15 110
+ 0.575 0 2 cbr 500 ------- 0 0.0 3.0 95 111
- 0.575 0 2 cbr 500 ------- 0 0.0 3.0 95 111
r 0.576 2 3 cbr 500 ------- 1 1.0 3.0 6 92
- 0.578 2 3 cbr 500 ------- 1 1.0 3.0 8 96
r 0.579 1 2 cbr 500 ------- 1 1.0 3.0 13 106
+ 0.579 2 3 cbr 500 ------- 1 1.0 3.0 13 106
r 0.579 0 2 cbr 500 ------- 0 0.0 3.0 93 107
+ 0.579 2 3 cbr 500 ------- 0 0.0 3.0 93 107
r 0.58 2 3 cbr 500 ------- 0 0.0 3.0 86 93
+ 0.58 1 2 cbr 500 ------- 1 1.0 3.0 16 112
- 0.58 1 2 cbr 500 ------- 1 1.0 3.0 16 112
+ 0.58 0 2 cbr 500 ------- 0 0.0 3.0 96 113
- 0.58 0 2 cbr 500 ------- 0 0.0 3.0 96 113
- 0.582 2 3 cbr 500 ------- 0 0.0 3.0 88 97
r 0.584 1 2 cbr 500 ------- 1 1.0 3.0 14 108
+ 0.584 2 3 cbr 500 ------- 1 1.0 3.0 14 108
r 0.584 2 3 cbr 500 ------- 1 1.0 3.0 7 94
r 0.584 0 2 cbr 500 ------- 0 0.0 3.0 94 109
+ 0.584 2 3 cbr 500 ------- 0 0.0 3.0 94 109
+ 0.585 1 2 cbr 500 ------- 1 1.0 3.0 17 114
- 0.585 1 2 cbr 500 ------- 1 1.0 3.0 17 114
+ 0.585 0 2 cbr 500 ------- 0 0.0 3.0 97 115
- 0.585 0 2 cbr 500 ------- 0 0.0 3.0 97 115
- 0.586 2 3 cbr 500 ------- 1 1.0 3.0 9 98
r 0.588 2 3 cbr 500 ------- 0 0.0 3.0 87 95
r 0.589 1 2 cbr 500 ------- 1 1.0 3.0 15 110
+ 0.589 2 3 cbr 500 ------- 1 1.0 3.0 15 110
r 0.589 0 2 cbr 500 ------- 0 0.0 3.0 95 111
+ 0.589 2 3 cbr 500 ------- 0 0.0 3.0 95 111
+ 0.59 1 2 cbr 500 ------- 1 1.0 3.0 18 116
- 0.59 1 2 cbr 500 ------- 1 1.0 3.0 18 116
- 0.59 2 3 cbr 500 ------- 0 0.0 3.0 89 99
+ 0.59 0 2 cbr 500 ------- 0 0.0 3.0 98 117
- 0.59 0 2 cbr 500 ------- 0 0.0 3.0 98 117
r 0.592 2 3 cbr 500 ------- 1 1.0 3.0 8 96
r 0.594 1 2 cbr 500 ------- 1 1.0 3.0 16 112
+ 0.594 2 3 cbr 500 ------- 1 1.0 3.0 16 112
- 0.594 2 3 cbr 500 ------- 1 1.0 3.0 10 100
r 0.594 0 2 cbr 500 ------- 0 0.0 3.0 96 113
+ 0.594 2 3 cbr 500 ------- 0 0.0 3.0 96 113
+ 0.595 1 2 cbr 500 ------- 1 1.0 3.0 19 118
- 0.595 1 2 cbr 500 ------- 1 1.0 3.0 19 118
+ 0.595 0 2 cbr 500 ------- 0 0.0 3.0 99 119
- 0.595 0 2 cbr 500 ------- 0 0.0 3.0 99 119
r 0.596 2 3 cbr 500 ------- 0 0.0 3.0 88 97
- 0.598 2 3 cbr 500 ------- 0 0.0 3.0 90 101
r 0.599 1 2 cbr 500 ------- 1 1.0 3.0 17 114
+ 0.599 2 3 cbr 500 ------- 1 1.0 3.0 17 114
r 0.599 0 2 cbr 500 ------- 0 0.0 3.0 97 115
+ 0.599 2 3 cbr 500 ------- 0 0.0 3.0 97 115
r 0.6 2 3 cbr 500 ------- 1 1.0 3.0 9 98
+ 0.6 1 2 cbr 500 ------- 1 1.0 3.0 20 120
- 0.6 1 2 cbr 500 ------- 1 1.0 3.0 20 120
+ 0.6 0 2 cbr 500 ------- 0 0.0 3.0 100 121
- 0.6 0 2 cbr 500 ------- 0 0.0 3.0 100 121
- 0.602 2 3 cbr 500 ------- 1 1.0 3.0 11 102
r 0.604 1 2 cbr 500 ------- 1 1.0 3.0 18 116
+ 0.604 2 3 cbr 500 ------- 1 1.0 3.0 18 116
r 0.604 2 3 cbr 500 ------- 0 0.0 3.0 89 99
r 0.604 0 2 cbr 500 ------- 0 0.0 3.0 98 117
+ 0.604 2 3 cbr 500 ------- 0 0.0 3.0 98 117
+ 0.605 1 2 cbr 500 ------- 1 1.0 3.0 21 122
- 0.605 1 2 cbr 500 ------- 1 1.0 3.0 21 122
+ 0.605 0 2 cbr 500 ------- 0 0.0 3.0 101 123
- 0.605 0 2 cbr 500 ------- 0 0.0 3.0 101 123