v 1 eval {set sim_annotation {1 0 join-group -2147483648}}
v 1 eval {set sim_annotation {1 1 join-group -2147483648}}
v 1 eval {set sim_annotation {1 2 join-group -2147483648}}
v 1 eval {set sim_annotation {1 3 join-group -2147483648}}
v 1 eval {set sim_annotation {1 4 join-group -2147483648}}
v 1 eval {set sim_annotation {1 5 join-group -2147483648}}
v 1 eval {set sim_annotation {1 6 join-group -2147483648}}
v 1 eval {set sim_annotation {1 7 join-group -2147483648}}
v 1 eval {set sim_annotation {1 8 join-group -2147483648}}
v 1 eval {set sim_annotation {1 14 join-group -2147483648}}
+ 1.05 14 12 message 1400 ------- 1 14.1 -2147483648.0 -1 0
- 1.05 14 12 message 1400 ------- 1 14.1 -2147483648.0 -1 0
+ 1.08 14 12 message 1400 ------- 1 14.1 -2147483648.0 -1 1
- 1.08 14 12 message 1400 ------- 1 14.1 -2147483648.0 -1 1
r 1.107467 14 12 message 1400 ------- 1 14.1 -2147483648.0 -1 0
+ 1.107467 12 9 message 1400 ------- 1 14.1 -2147483648.0 -1 0
- 1.107467 12 9 message 1400 ------- 1 14.1 -2147483648.0 -1 0
+ 1.107467 12 10 message 1400 ------- 1 14.1 -2147483648.0 -1 0
- 1.107467 12 10 message 1400 ------- 1 14.1 -2147483648.0 -1 0
+ 1.107467 12 11 message 1400 ------- 1 14.1 -2147483648.0 -1 0
- 1.107467 12 11 message 1400 ------- 1 14.1 -2147483648.0 -1 0
+ 1.107467 12 13 message 1400 ------- 1 14.1 -2147483648.0 -1 0
- 1.107467 12 13 message 1400 ------- 1 14.1 -2147483648.0 -1 0
+ 1.11 14 12 message 1400 ------- 1 14.1 -2147483648.0 -1 2
- 1.11 14 12 message 1400 ------- 1 14.1 -2147483648.0 -1 2
r 1.124933 12 13 message 1400 ------- 1 14.1 -2147483648.0 -1 0
+ 1.124933 13 12 prune 80 ------- 30 13.0 12.0 -1 3
- 1.124933 13 12 prune 80 ------- 30 13.0 12.0 -1 3
r 1.13536 13 12 prune 80 ------- 30 13.0 12.0 -1 3
r 1.137467 14 12 message 1400 ------- 1 14.1 -2147483648.0 -1 1
+ 1.137467 12 9 message 1400 ------- 1 14.1 -2147483648.0 -1 1
- 1.137467 12 9 message 1400 ------- 1 14.1 -2147483648.0 -1 1
+ 1.137467 12 10 message 1400 ------- 1 14.1 -2147483648.0 -1 1
- 1.137467 12 10 message 1400 ------- 1 14.1 -2147483648.0 -1 1
+ 1.137467 12 11 message 1400 ------- 1 14.1 -2147483648.0 -1 1
- 1.137467 12 11 message 1400 ------- 1 14.1 -2147483648.0 -1 1
+ 1.14 14 12 message 1400 ------- 1 14.1 -2147483648.0 -1 4
- 1.14 14 12 message 1400 ------- 1 14.1 -2147483648.0 -1 4
r 1.154933 12 9 message 1400 ------- 1 14.1 -2147483648.0 -1 0
+ 1.154933 9 0 message 1400 ------- 1 14.1 -2147483648.0 -1 0
- 1.154933 9 0 message 1400 ------- 1 14.1 -2147483648.0 -1 0
+ 1.154933 9 1 message 1400 ------- 1 14.1 -2147483648.0 -1 0
- 1.154933 9 1 message 1400 ------- 1 14.1 -2147483648.0 -1 0
+ 1.154933 9 2 message 1400 ------- 1 14.1 -2147483648.0 -1 0
- 1.154933 9 2 message 1400 ------- 1 14.1 -2147483648.0 -1 0
r 1.154933 12 10 message 1400 ------- 1 14.1 -2147483648.0 -1 0
+ 1.154933 10 3 message 1400 ------- 1 14.1 -2147483648.0 -1 0
- 1.154933 10 3 message 1400 ------- 1 14.1 -2147483648.0 -1 0
+ 1.154933 10 4 message 1400 ------- 1 14.1 -2147483648.0 -1 0
- 1.154933 10 4 message 1400 ------- 1 14.1 -2147483648.0 -1 0
+ 1.154933 10 5 message 1400 ------- 1 14.1 -2147483648.0 -1 0
- 1.154933 10 5 message 1400 ------- 1 14.1 -2147483648.0 -1 0
r 1.154933 12 11 message 1400 ------- 1 14.1 -2147483648.0 -1 0
+ 1.154933 11 6 message 1400 ------- 1 14.1 -2147483648.0 -1 0
- 1.154933 11 6 message 1400 ------- 1 14.1 -2147483648.0 -1 0
+ 1.154933 11 7 message 1400 ------- 1 14.1 -2147483648.0 -1 0
- 1.154933 11 7 message 1400 ------- 1 14.1 -2147483648.0 -1 0
+ 1.154933 11 8 message 1400 ------- 1 14.1 -2147483648.0 -1 0
- 1.154933 11 8 message 1400 ------- 1 14.1 -2147483648.0 -1 0
r 1.167467 14 12 message 1400 ------- 1 14.1 -2147483648.0 -1 2
+ 1.167467 12 9 message 1400 ------- 1 14.1 -2147483648.0 -1 2
- 1.167467 12 9 message 1400 ------- 1 14.1 -2147483648.0 -1 2
+ 1.167467 12 10 message 1400 ------- 1 14.1 -2147483648.0 -1 2
- 1.167467 12 10 message 1400 ------- 1 14.1 -2147483648.0 -1 2
+ 1.167467 12 11 message 1400 ------- 1 14.1 -2147483648.0 -1 2
- 1.167467 12 11 message 1400 ------- 1 14.1 -2147483648.0 -1 2
r 1.1724 9 0 message 1400 ------- 1 14.1 -2147483648.0 -1 0
+ 1.1724 0 9 message 800 ------- 2 0.1 14.1 -1 5
- 1.1724 0 9 message 800 ------- 2 0.1 14.1 -1 5
r 1.1724 9 1 message 1400 ------- 1 14.1 -2147483648.0 -1 0
+ 1.1724 1 9 message 800 ------- 2 1.1 14.1 -1 6
- 1.1724 1 9 message 800 ------- 2 1.1 14.1 -1 6
r 1.1724 9 2 message 1400 ------- 1 14.1 -2147483648.0 -1 0
+ 1.1724 2 9 message 800 ------- 2 2.1 14.1 -1 7
- 1.1724 2 9 message 800 ------- 2 2.1 14.1 -1 7
r 1.1724 10 3 message 1400 ------- 1 14.1 -2147483648.0 -1 0
+ 1.1724 3 10 message 800 ------- 2 3.2 14.1 -1 8
- 1.1724 3 10 message 800 ------- 2 3.2 14.1 -1 8
r 1.1724 10 4 message 1400 ------- 1 14.1 -2147483648.0 -1 0
+ 1.1724 4 10 message 800 ------- 2 4.1 14.1 -1 9
- 1.1724 4 10 message 800 ------- 2 4.1 14.1 -1 9
r 1.1724 10 5 message 1400 ------- 1 14.1 -2147483648.0 -1 0
+ 1.1724 5 10 message 800 ------- 2 5.1 14.1 -1 10
- 1.1724 5 10 message 800 ------- 2 5.1 14.1 -1 10
r 1.1724 11 6 message 1400 ------- 1 14.1 -2147483648.0 -1 0
+ 1.1724 6 11 message 800 ------- 2 6.1 14.1 -1 11
- 1.1724 6 11 message 800 ------- 2 6.1 14.1 -1 11
r 1.1724 11 7 message 1400 ------- 1 14.1 -2147483648.0 -1 0
+ 1.1724 7 11 message 800 ------- 2 7.1 14.1 -1 12
- 1.1724 7 11 message 800 ------- 2 7.1 14.1 -1 12
r 1.1724 11 8 message 1400 ------- 1 14.1 -2147483648.0 -1 0
+ 1.1724 8 11 message 800 ------- 2 8.1 14.1 -1 13
- 1.1724 8 11 message 800 ------- 2 8.1 14.1 -1 13
r 1.184933 12 9 message 1400 ------- 1 14.1 -2147483648.0 -1 1
+ 1.184933 9 0 message 1400 ------- 1 14.1 -2147483648.0 -1 1
- 1.184933 9 0 message 1400 ------- 1 14.1 -2147483648.0 -1 1
+ 1.184933 9 1 message 1400 ------- 1 14.1 -2147483648.0 -1 1
- 1.184933 9 1 message 1400 ------- 1 14.1 -2147483648.0 -1 1
+ 1.184933 9 2 message 1400 ------- 1 14.1 -2147483648.0 -1 1
- 1.184933 9 2 message 1400 ------- 1 14.1 -2147483648.0 -1 1
r 1.184933 12 10 message 1400 ------- 1 14.1 -2147483648.0 -1 1
+ 1.184933 10 3 message 1400 ------- 1 14.1 -2147483648.0 -1 1
- 1.184933 10 3 message 1400 ------- 1 14.1 -2147483648.0 -1 1
+ 1.184933 10 4 message 1400 ------- 1 14.1 -2147483648.0 -1 1
- 1.184933 10 4 message 1400 ------- 1 14.1 -2147483648.0 -1 1
+ 1.184933 10 5 message 1400 ------- 1 14.1 -2147483648.0 -1 1
- 1.184933 10 5 message 1400 ------- 1 14.1 -2147483648.0 -1 1
r 1.184933 12 11 message 1400 ------- 1 14.1 -2147483648.0 -1 1
+ 1.184933 11 6 message 1400 ------- 1 14.1 -2147483648.0 -1 1
- 1.184933 11 6 message 1400 ------- 1 14.1 -2147483648.0 -1 1
+ 1.184933 11 7 message 1400 ------- 1 14.1 -2147483648.0 -1 1
- 1.184933 11 7 message 1400 ------- 1 14.1 -2147483648.0 -1 1
+ 1.184933 11 8 message 1400 ------- 1 14.1 -2147483648.0 -1 1
- 1.184933 11 8 message 1400 ------- 1 14.1 -2147483648.0 -1 1
r 1.186667 0 9 message 800 ------- 2 0.1 14.1 -1 5
+ 1.186667 9 12 message 800 ------- 2 0.1 14.1 -1 5
- 1.186667 9 12 message 800 ------- 2 0.1 14.1 -1 5
r 1.186667 1 9 message 800 ------- 2 1.1 14.1 -1 6
+ 1.186667 9 12 message 800 ------- 2 1.1 14.1 -1 6
r 1.186667 2 9 message 800 ------- 2 2.1 14.1 -1 7
+ 1.186667 9 12 message 800 ------- 2 2.1 14.1 -1 7
r 1.186667 3 10 message 800 ------- 2 3.2 14.1 -1 8
+ 1.186667 10 12 message 800 ------- 2 3.2 14.1 -1 8
- 1.186667 10 12 message 800 ------- 2 3.2 14.1 -1 8
r 1.186667 4 10 message 800 ------- 2 4.1 14.1 -1 9
+ 1.186667 10 12 message 800 ------- 2 4.1 14.1 -1 9
r 1.186667 5 10 message 800 ------- 2 5.1 14.1 -1 10
+ 1.186667 10 12 message 800 ------- 2 5.1 14.1 -1 10
r 1.186667 6 11 message 800 ------- 2 6.1 14.1 -1 11
+ 1.186667 11 12 message 800 ------- 2 6.1 14.1 -1 11
- 1.186667 11 12 message 800 ------- 2 6.1 14.1 -1 11
r 1.186667 7 11 message 800 ------- 2 7.1 14.1 -1 12
+ 1.186667 11 12 message 800 ------- 2 7.1 14.1 -1 12
r 1.186667 8 11 message 800 ------- 2 8.1 14.1 -1 13
+ 1.186667 11 12 message 800 ------- 2 8.1 14.1 -1 13
- 1.190933 9 12 message 800 ------- 2 1.1 14.1 -1 6
- 1.190933 10 12 message 800 ------- 2 4.1 14.1 -1 9
- 1.190933 11 12 message 800 ------- 2 7.1 14.1 -1 12
- 1.1952 9 12 message 800 ------- 2 2.1 14.1 -1 7
- 1.1952 10 12 message 800 ------- 2 5.1 14.1 -1 10
- 1.1952 11 12 message 800 ------- 2 8.1 14.1 -1 13
r 1.197467 14 12 message 1400 ------- 1 14.1 -2147483648.0 -1 4
+ 1.197467 12 9 message 1400 ------- 1 14.1 -2147483648.0 -1 4
- 1.197467 12 9 message 1400 ------- 1 14.1 -2147483648.0 -1 4
+ 1.197467 12 10 message 1400 ------- 1 14.1 -2147483648.0 -1 4
- 1.197467 12 10 message 1400 ------- 1 14.1 -2147483648.0 -1 4
+ 1.197467 12 11 message 1400 ------- 1 14.1 -2147483648.0 -1 4
- 1.197467 12 11 message 1400 ------- 1 14.1 -2147483648.0 -1 4
r 1.2024 9 0 message 1400 ------- 1 14.1 -2147483648.0 -1 1
+ 1.2024 0 9 message 800 ------- 2 0.1 14.1 -1 14
- 1.2024 0 9 message 800 ------- 2 0.1 14.1 -1 14
r 1.2024 9 1 message 1400 ------- 1 14.1 -2147483648.0 -1 1
+ 1.2024 1 9 message 800 ------- 2 1.1 14.1 -1 15
- 1.2024 1 9 message 800 ------- 2 1.1 14.1 -1 15
r 1.2024 9 2 message 1400 ------- 1 14.1 -2147483648.0 -1 1
+ 1.2024 2 9 message 800 ------- 2 2.1 14.1 -1 16
- 1.2024 2 9 message 800 ------- 2 2.1 14.1 -1 16
r 1.2024 10 3 message 1400 ------- 1 14.1 -2147483648.0 -1 1
+ 1.2024 3 10 message 800 ------- 2 3.2 14.1 -1 17
- 1.2024 3 10 message 800 ------- 2 3.2 14.1 -1 17
r 1.2024 10 4 message 1400 ------- 1 14.1 -2147483648.0 -1 1
+ 1.2024 4 10 message 800 ------- 2 4.1 14.1 -1 18
- 1.2024 4 10 message 800 ------- 2 4.1 14.1 -1 18
r 1.2024 10 5 message 1400 ------- 1 14.1 -2147483648.0 -1 1
+ 1.2024 5 10 message 800 ------- 2 5.1 14.1 -1 19
- 1.2024 5 10 message 800 ------- 2 5.1 14.1 -1 19
r 1.2024 11 6 message 1400 ------- 1 14.1 -2147483648.0 -1 1
+ 1.2024 6 11 message 800 ------- 2 6.1 14.1 -1 20
- 1.2024 6 11 message 800 ------- 2 6.1 14.1 -1 20
r 1.2024 11 7 message 1400 ------- 1 14.1 -2147483648.0 -1 1
+ 1.2024 7 11 message 800 ------- 2 7.1 14.1 -1 21
- 1.2024 7 11 message 800 ------- 2 7.1 14.1 -1 21
r 1.2024 11 8 message 1400 ------- 1 14.1 -2147483648.0 -1 1
+ 1.2024 8 11 message 800 ------- 2 8.1 14.1 -1 22
- 1.2024 8 11 message 800 ------- 2 8.1 14.1 -1 22
r 1.214933 12 9 message 1400 ------- 1 14.1 -2147483648.0 -1 2
+ 1.214933 9 0 message 1400 ------- 1 14.1 -2147483648.0 -1 2
- 1.214933 9 0 message 1400 ------- 1 14.1 -2147483648.0 -1 2
+ 1.214933 9 1 message 1400 ------- 1 14.1 -2147483648.0 -1 2
- 1.214933 9 1 message 1400 ------- 1 14.1 -2147483648.0 -1 2
+ 1.214933 9 2 message 1400 ------- 1 14.1 -2147483648.0 -1 2
- 1.214933 9 2 message 1400 ------- 1 14.1 -2147483648.0 -1 2
r 1.214933 12 10 message 1400 ------- 1 14.1 -2147483648.0 -1 2
+ 1.214933 10 3 message 1400 ------- 1 14.1 -2147483648.0 -1 2
- 1.214933 10 3 message 1400 ------- 1 14.1 -2147483648.0 -1 2
+ 1.214933 10 4 message 1400 ------- 1 14.1 -2147483648.0 -1 2
- 1.214933 10 4 message 1400 ------- 1 14.1 -2147483648.0 -1 2
+ 1.214933 10 5 message 1400 ------- 1 14.1 -2147483648.0 -1 2
- 1.214933 10 5 message 1400 ------- 1 14.1 -2147483648.0 -1 2
r 1.214933 12 11 message 1400 ------- 1 14.1 -2147483648.0 -1 2
+ 1.214933 11 6 message 1400 ------- 1 14.1 -2147483648.0 -1 2
- 1.214933 11 6 message 1400 ------- 1 14.1 -2147483648.0 -1 2
+ 1.214933 11 7 message 1400 ------- 1 14.1 -2147483648.0 -1 2
- 1.214933 11 7 message 1400 ------- 1 14.1 -2147483648.0 -1 2
+ 1.214933 11 8 message 1400 ------- 1 14.1 -2147483648.0 -1 2
- 1.214933 11 8 message 1400 ------- 1 14.1 -2147483648.0 -1 2
r 1.216667 0 9 message 800 ------- 2 0.1 14.1 -1 14
+ 1.216667 9 12 message 800 ------- 2 0.1 14.1 -1 14
- 1.216667 9 12 message 800 ------- 2 0.1 14.1 -1 14
r 1.216667 1 9 message 800 ------- 2 1.1 14.1 -1 15
+ 1.216667 9 12 message 800 ------- 2 1.1 14.1 -1 15
r 1.216667 2 9 message 800 ------- 2 2.1 14.1 -1 16
+ 1.216667 9 12 message 800 ------- 2 2.1 14.1 -1 16
r 1.216667 3 10 message 800 ------- 2 3.2 14.1 -1 17
+ 1.216667 10 12 message 800 ------- 2 3.2 14.1 -1 17
- 1.216667 10 12 message 800 ------- 2 3.2 14.1 -1 17
r 1.216667 4 10 message 800 ------- 2 4.1 14.1 -1 18
+ 1.216667 10 12 message 800 ------- 2 4.1 14.1 -1 18
r 1.216667 5 10 message 800 ------- 2 5.1 14.1 -1 19
+ 1.216667 10 12 message 800 ------- 2 5.1 14.1 -1 19
r 1.216667 6 11 message 800 ------- 2 6.1 14.1 -1 20
+ 1.216667 11 12 message 800 ------- 2 6.1 14.1 -1 20
- 1.216667 11 12 message 800 ------- 2 6.1 14.1 -1 20
r 1.216667 7 11 message 800 ------- 2 7.1 14.1 -1 21
+ 1.216667 11 12 message 800 ------- 2 7.1 14.1 -1 21
r 1.216667 8 11 message 800 ------- 2 8.1 14.1 -1 22
+ 1.216667 11 12 message 800 ------- 2 8.1 14.1 -1 22
- 1.220933 9 12 message 800 ------- 2 1.1 14.1 -1 15
- 1.220933 10 12 message 800 ------- 2 4.1 14.1 -1 18
- 1.220933 11 12 message 800 ------- 2 7.1 14.1 -1 21
- 1.2252 9 12 message 800 ------- 2 2.1 14.1 -1 16
- 1.2252 10 12 message 800 ------- 2 5.1 14.1 -1 19
- 1.2252 11 12 message 800 ------- 2 8.1 14.1 -1 22
r 1.230933 9 12 message 800 ------- 2 0.1 14.1 -1 5
+ 1.230933 12 14 message 800 ------- 2 0.1 14.1 -1 5
- 1.230933 12 14 message 800 ------- 2 0.1 14.1 -1 5
r 1.230933 10 12 message 800 ------- 2 3.2 14.1 -1 8
+ 1.230933 12 14 message 800 ------- 2 3.2 14.1 -1 8
r 1.230933 11 12 message 800 ------- 2 6.1 14.1 -1 11
+ 1.230933 12 14 message 800 ------- 2 6.1 14.1 -1 11
r 1.2324 9 0 message 1400 ------- 1 14.1 -2147483648.0 -1 2
+ 1.2324 0 9 message 800 ------- 2 0.1 14.1 -1 23
- 1.2324 0 9 message 800 ------- 2 0.1 14.1 -1 23
r 1.2324 9 1 message 1400 ------- 1 14.1 -2147483648.0 -1 2
+ 1.2324 1 9 message 800 ------- 2 1.1 14.1 -1 24
- 1.2324 1 9 message 800 ------- 2 1.1 14.1 -1 24
r 1.2324 9 2 message 1400 ------- 1 14.1 -2147483648.0 -1 2
+ 1.2324 2 9 message 800 ------- 2 2.1 14.1 -1 25
- 1.2324 2 9 message 800 ------- 2 2.1 14.1 -1 25
r 1.2324 10 3 message 1400 ------- 1 14.1 -2147483648.0 -1 2
+ 1.2324 3 10 message 800 ------- 2 3.2 14.1 -1 26
- 1.2324 3 10 message 800 ------- 2 3.2 14.1 -1 26
r 1.2324 10 4 message 1400 ------- 1 14.1 -2147483648.0 -1 2
+ 1.2324 4 10 message 800 ------- 2 4.1 14.1 -1 27
- 1.2324 4 10 message 800 ------- 2 4.1 14.1 -1 27
r 1.2324 10 5 message 1400 ------- 1 14.1 -2147483648.0 -1 2
+ 1.2324 5 10 message 800 ------- 2 5.1 14.1 -1 28
- 1.2324 5 10 message 800 ------- 2 5.1 14.1 -1 28
r 1.2324 11 6 message 1400 ------- 1 14.1 -2147483648.0 -1 2
+ 1.2324 6 11 message 800 ------- 2 6.1 14.1 -1 29
- 1.2324 6 11 message 800 ------- 2 6.1 14.1 -1 29
r 1.2324 11 7 message 1400 ------- 1 14.1 -2147483648.0 -1 2
+ 1.2324 7 11 message 800 ------- 2 7.1 14.1 -1 30
- 1.2324 7 11 message 800 ------- 2 7.1 14.1 -1 30
r 1.2324 11 8 message 1400 ------- 1 14.1 -2147483648.0 -1 2
+ 1.2324 8 11 message 800 ------- 2 8.1 14.1 -1 31
- 1.2324 8 11 message 800 ------- 2 8.1 14.1 -1 31
r 1.2352 9 12 message 800 ------- 2 1.1 14.1 -1 6
+ 1.2352 12 14 message 800 ------- 2 1.1 14.1 -1 6
r 1.2352 10 12 message 800 ------- 2 4.1 14.1 -1 9
+ 1.2352 12 14 message 800 ------- 2 4.1 14.1 -1 9
r 1.2352 11 12 message 800 ------- 2 7.1 14.1 -1 12
+ 1.2352 12 14 message 800 ------- 2 7.1 14.1 -1 12
- 1.2352 12 14 message 800 ------- 2 3.2 14.1 -1 8
r 1.239467 9 12 message 800 ------- 2 2.1 14.1 -1 7
+ 1.239467 12 14 message 800 ------- 2 2.1 14.1 -1 7
r 1.239467 10 12 message 800 ------- 2 5.1 14.1 -1 10
+ 1.239467 12 14 message 800 ------- 2 5.1 14.1 -1 10
d 1.239467 12 14 message 800 ------- 2 5.1 14.1 -1 10
r 1.239467 11 12 message 800 ------- 2 8.1 14.1 -1 13
+ 1.239467 12 14 message 800 ------- 2 8.1 14.1 -1 13
d 1.239467 12 14 message 800 ------- 2 8.1 14.1 -1 13
- 1.239467 12 14 message 800 ------- 2 6.1 14.1 -1 11
- 1.243733 12 14 message 800 ------- 2 1.1 14.1 -1 6
r 1.244933 12 9 message 1400 ------- 1 14.1 -2147483648.0 -1 4
+ 1.244933 9 0 message 1400 ------- 1 14.1 -2147483648.0 -1 4
- 1.244933 9 0 message 1400 ------- 1 14.1 -2147483648.0 -1 4
+ 1.244933 9 1 message 1400 ------- 1 14.1 -2147483648.0 -1 4
- 1.244933 9 1 message 1400 ------- 1 14.1 -2147483648.0 -1 4
+ 1.244933 9 2 message 1400 ------- 1 14.1 -2147483648.0 -1 4
- 1.244933 9 2 message 1400 ------- 1 14.1 -2147483648.0 -1 4
r 1.244933 12 10 message 1400 ------- 1 14.1 -2147483648.0 -1 4
+ 1.244933 10 3 message 1400 ------- 1 14.1 -2147483648.0 -1 4
- 1.244933 10 3 message 1400 ------- 1 14.1 -2147483648.0 -1 4
+ 1.244933 10 4 message 1400 ------- 1 14.1 -2147483648.0 -1 4
- 1.244933 10 4 message 1400 ------- 1 14.1 -2147483648.0 -1 4
+ 1.244933 10 5 message 1400 ------- 1 14.1 -2147483648.0 -1 4
- 1.244933 10 5 message 1400 ------- 1 14.1 -2147483648.0 -1 4
r 1.244933 12 11 message 1400 ------- 1 14.1 -2147483648.0 -1 4
+ 1.244933 11 6 message 1400 ------- 1 14.1 -2147483648.0 -1 4
- 1.244933 11 6 message 1400 ------- 1 14.1 -2147483648.0 -1 4
+ 1.244933 11 7 message 1400 ------- 1 14.1 -2147483648.0 -1 4
- 1.244933 11 7 message 1400 ------- 1 14.1 -2147483648.0 -1 4
+ 1.244933 11 8 message 1400 ------- 1 14.1 -2147483648.0 -1 4
- 1.244933 11 8 message 1400 ------- 1 14.1 -2147483648.0 -1 4
r 1.246667 0 9 message 800 ------- 2 0.1 14.1 -1 23
+ 1.246667 9 12 message 800 ------- 2 0.1 14.1 -1 23
- 1.246667 9 12 message 800 ------- 2 0.1 14.1 -1 23
r 1.246667 1 9 message 800 ------- 2 1.1 14.1 -1 24
+ 1.246667 9 12 message 800 ------- 2 1.1 14.1 -1 24
r 1.246667 2 9 message 800 ------- 2 2.1 14.1 -1 25
+ 1.246667 9 12 message 800 ------- 2 2.1 14.1 -1 25
r 1.246667 3 10 message 800 ------- 2 3.2 14.1 -1 26
+ 1.246667 10 12 message 800 ------- 2 3.2 14.1 -1 26
- 1.246667 10 12 message 800 ------- 2 3.2 14.1 -1 26
r 1.246667 4 10 message 800 ------- 2 4.1 14.1 -1 27
+ 1.246667 10 12 message 800 ------- 2 4.1 14.1 -1 27
r 1.246667 5 10 message 800 ------- 2 5.1 14.1 -1 28
+ 1.246667 10 12 message 800 ------- 2 5.1 14.1 -1 28
r 1.246667 6 11 message 800 ------- 2 6.1 14.1 -1 29
+ 1.246667 11 12 message 800 ------- 2 6.1 14.1 -1 29
- 1.246667 11 12 message 800 ------- 2 6.1 14.1 -1 29
r 1.246667 7 11 message 800 ------- 2 7.1 14.1 -1 30
+ 1.246667 11 12 message 800 ------- 2 7.1 14.1 -1 30
r 1.246667 8 11 message 800 ------- 2 8.1 14.1 -1 31
+ 1.246667 11 12 message 800 ------- 2 8.1 14.1 -1 31
- 1.248 12 14 message 800 ------- 2 4.1 14.1 -1 9
- 1.250933 9 12 message 800 ------- 2 1.1 14.1 -1 24
- 1.250933 10 12 message 800 ------- 2 4.1 14.1 -1 27
- 1.250933 11 12 message 800 ------- 2 7.1 14.1 -1 30
- 1.252267 12 14 message 800 ------- 2 7.1 14.1 -1 12
- 1.2552 9 12 message 800 ------- 2 2.1 14.1 -1 25
- 1.2552 10 12 message 800 ------- 2 5.1 14.1 -1 28
- 1.2552 11 12 message 800 ------- 2 8.1 14.1 -1 31
- 1.256533 12 14 message 800 ------- 2 2.1 14.1 -1 7
r 1.260933 9 12 message 800 ------- 2 0.1 14.1 -1 14
+ 1.260933 12 14 message 800 ------- 2 0.1 14.1 -1 14
- 1.260933 12 14 message 800 ------- 2 0.1 14.1 -1 14
r 1.260933 10 12 message 800 ------- 2 3.2 14.1 -1 17
+ 1.260933 12 14 message 800 ------- 2 3.2 14.1 -1 17
r 1.260933 11 12 message 800 ------- 2 6.1 14.1 -1 20
+ 1.260933 12 14 message 800 ------- 2 6.1 14.1 -1 20
r 1.2624 9 0 message 1400 ------- 1 14.1 -2147483648.0 -1 4
+ 1.2624 0 9 message 800 ------- 2 0.1 14.1 -1 32
- 1.2624 0 9 message 800 ------- 2 0.1 14.1 -1 32
r 1.2624 9 1 message 1400 ------- 1 14.1 -2147483648.0 -1 4
+ 1.2624 1 9 message 800 ------- 2 1.1 14.1 -1 33
- 1.2624 1 9 message 800 ------- 2 1.1 14.1 -1 33
r 1.2624 9 2 message 1400 ------- 1 14.1 -2147483648.0 -1 4
+ 1.2624 2 9 message 800 ------- 2 2.1 14.1 -1 34
- 1.2624 2 9 message 800 ------- 2 2.1 14.1 -1 34
r 1.2624 10 3 message 1400 ------- 1 14.1 -2147483648.0 -1 4
+ 1.2624 3 10 message 800 ------- 2 3.2 14.1 -1 35
- 1.2624 3 10 message 800 ------- 2 3.2 14.1 -1 35
r 1.2624 10 4 message 1400 ------- 1 14.1 -2147483648.0 -1 4
+ 1.2624 4 10 message 800 ------- 2 4.1 14.1 -1 36
- 1.2624 4 10 message 800 ------- 2 4.1 14.1 -1 36
r 1.2624 10 5 message 1400 ------- 1 14.1 -2147483648.0 -1 4
+ 1.2624 5 10 message 800 ------- 2 5.1 14.1 -1 37
- 1.2624 5 10 message 800 ------- 2 5.1 14.1 -1 37
r 1.2624 11 6 message 1400 ------- 1 14.1 -2147483648.0 -1 4
+ 1.2624 6 11 message 800 ------- 2 6.1 14.1 -1 38
- 1.2624 6 11 message 800 ------- 2 6.1 14.1 -1 38
r 1.2624 11 7 message 1400 ------- 1 14.1 -2147483648.0 -1 4
+ 1.2624 7 11 message 800 ------- 2 7.1 14.1 -1 39
- 1.2624 7 11 message 800 ------- 2 7.1 14.1 -1 39
r 1.2624 11 8 message 1400 ------- 1 14.1 -2147483648.0 -1 4
+ 1.2624 8 11 message 800 ------- 2 8.1 14.1 -1 40
- 1.2624 8 11 message 800 ------- 2 8.1 14.1 -1 40
r 1.2652 9 12 message 800 ------- 2 1.1 14.1 -1 15
+ 1.2652 12 14 message 800 ------- 2 1.1 14.1 -1 15
r 1.2652 10 12 message 800 ------- 2 4.1 14.1 -1 18
+ 1.2652 12 14 message 800 ------- 2 4.1 14.1 -1 18
r 1.2652 11 12 message 800 ------- 2 7.1 14.1 -1 21
+ 1.2652 12 14 message 800 ------- 2 7.1 14.1 -1 21
- 1.2652 12 14 message 800 ------- 2 3.2 14.1 -1 17
r 1.269467 9 12 message 800 ------- 2 2.1 14.1 -1 16
+ 1.269467 12 14 message 800 ------- 2 2.1 14.1 -1 16
r 1.269467 10 12 message 800 ------- 2 5.1 14.1 -1 19
+ 1.269467 12 14 message 800 ------- 2 5.1 14.1 -1 19
d 1.269467 12 14 message 800 ------- 2 5.1 14.1 -1 19
r 1.269467 11 12 message 800 ------- 2 8.1 14.1 -1 22
+ 1.269467 12 14 message 800 ------- 2 8.1 14.1 -1 22
d 1.269467 12 14 message 800 ------- 2 8.1 14.1 -1 22
- 1.269467 12 14 message 800 ------- 2 6.1 14.1 -1 20
- 1.273733 12 14 message 800 ------- 2 1.1 14.1 -1 15
r 1.276667 0 9 message 800 ------- 2 0.1 14.1 -1 32
+ 1.276667 9 12 message 800 ------- 2 0.1 14.1 -1 32
- 1.276667 9 12 message 800 ------- 2 0.1 14.1 -1 32
r 1.276667 1 9 message 800 ------- 2 1.1 14.1 -1 33
+ 1.276667 9 12 message 800 ------- 2 1.1 14.1 -1 33
r 1.276667 2 9 message 800 ------- 2 2.1 14.1 -1 34
+ 1.276667 9 12 message 800 ------- 2 2.1 14.1 -1 34
r 1.276667 3 10 message 800 ------- 2 3.2 14.1 -1 35
+ 1.276667 10 12 message 800 ------- 2 3.2 14.1 -1 35
- 1.276667 10 12 message 800 ------- 2 3.2 14.1 -1 35
r 1.276667 4 10 message 800 ------- 2 4.1 14.1 -1 36
+ 1.276667 10 12 message 800 ------- 2 4.1 14.1 -1 36
r 1.276667 5 10 message 800 ------- 2 5.1 14.1 -1 37
+ 1.276667 10 12 message 800 ------- 2 5.1 14.1 -1 37
r 1.276667 6 11 message 800 ------- 2 6.1 14.1 -1 38
+ 1.276667 11 12 message 800 ------- 2 6.1 14.1 -1 38
- 1.276667 11 12 message 800 ------- 2 6.1 14.1 -1 38
r 1.276667 7 11 message 800 ------- 2 7.1 14.1 -1 39
+ 1.276667 11 12 message 800 ------- 2 7.1 14.1 -1 39
r 1.276667 8 11 message 800 ------- 2 8.1 14.1 -1 40
+ 1.276667 11 12 message 800 ------- 2 8.1 14.1 -1 40
- 1.278 12 14 message 800 ------- 2 4.1 14.1 -1 18
- 1.280933 9 12 message 800 ------- 2 1.1 14.1 -1 33
- 1.280933 10 12 message 800 ------- 2 4.1 14.1 -1 36
- 1.280933 11 12 message 800 ------- 2 7.1 14.1 -1 39
- 1.282267 12 14 message 800 ------- 2 7.1 14.1 -1 21
- 1.2852 9 12 message 800 ------- 2 2.1 14.1 -1 34
- 1.2852 10 12 message 800 ------- 2 5.1 14.1 -1 37
- 1.2852 11 12 message 800 ------- 2 8.1 14.1 -1 40
r 1.2852 12 14 message 800 ------- 2 0.1 14.1 -1 5
- 1.286533 12 14 message 800 ------- 2 2.1 14.1 -1 16
r 1.289467 12 14 message 800 ------- 2 3.2 14.1 -1 8
r 1.290933 9 12 message 800 ------- 2 0.1 14.1 -1 23
+ 1.290933 12 14 message 800 ------- 2 0.1 14.1 -1 23
- 1.290933 12 14 message 800 ------- 2 0.1 14.1 -1 23
r 1.290933 10 12 message 800 ------- 2 3.2 14.1 -1 26
+ 1.290933 12 14 message 800 ------- 2 3.2 14.1 -1 26
r 1.290933 11 12 message 800 ------- 2 6.1 14.1 -1 29
+ 1.290933 12 14 message 800 ------- 2 6.1 14.1 -1 29
r 1.293733 12 14 message 800 ------- 2 6.1 14.1 -1 11
r 1.2952 9 12 message 800 ------- 2 1.1 14.1 -1 24
+ 1.2952 12 14 message 800 ------- 2 1.1 14.1 -1 24
r 1.2952 10 12 message 800 ------- 2 4.1 14.1 -1 27
+ 1.2952 12 14 message 800 ------- 2 4.1 14.1 -1 27
r 1.2952 11 12 message 800 ------- 2 7.1 14.1 -1 30
+ 1.2952 12 14 message 800 ------- 2 7.1 14.1 -1 30
- 1.2952 12 14 message 800 ------- 2 3.2 14.1 -1 26
r 1.298 12 14 message 800 ------- 2 1.1 14.1 -1 6
r 1.299467 9 12 message 800 ------- 2 2.1 14.1 -1 25
+ 1.299467 12 14 message 800 ------- 2 2.1 14.1 -1 25
r 1.299467 10 12 message 800 ------- 2 5.1 14.1 -1 28
+ 1.299467 12 14 message 800 ------- 2 5.1 14.1 -1 28
d 1.299467 12 14 message 800 ------- 2 5.1 14.1 -1 28
r 1.299467 11 12 message 800 ------- 2 8.1 14.1 -1 31
+ 1.299467 12 14 message 800 ------- 2 8.1 14.1 -1 31
d 1.299467 12 14 message 800 ------- 2 8.1 14.1 -1 31
- 1.299467 12 14 message 800 ------- 2 6.1 14.1 -1 29
r 1.302267 12 14 message 800 ------- 2 4.1 14.1 -1 9
- 1.303733 12 14 message 800 ------- 2 1.1 14.1 -1 24
r 1.306533 12 14 message 800 ------- 2 7.1 14.1 -1 12
- 1.308 12 14 message 800 ------- 2 4.1 14.1 -1 27
r 1.3108 12 14 message 800 ------- 2 2.1 14.1 -1 7
- 1.312267 12 14 message 800 ------- 2 7.1 14.1 -1 30
r 1.3152 12 14 message 800 ------- 2 0.1 14.1 -1 14
- 1.316533 12 14 message 800 ------- 2 2.1 14.1 -1 25
r 1.319467 12 14 message 800 ------- 2 3.2 14.1 -1 17
r 1.320933 9 12 message 800 ------- 2 0.1 14.1 -1 32
+ 1.320933 12 14 message 800 ------- 2 0.1 14.1 -1 32
- 1.320933 12 14 message 800 ------- 2 0.1 14.1 -1 32
r 1.320933 10 12 message 800 ------- 2 3.2 14.1 -1 35
+ 1.320933 12 14 message 800 ------- 2 3.2 14.1 -1 35
r 1.320933 11 12 message 800 ------- 2 6.1 14.1 -1 38
+ 1.320933 12 14 message 800 ------- 2 6.1 14.1 -1 38
r 1.323733 12 14 message 800 ------- 2 6.1 14.1 -1 20
r 1.3252 9 12 message 800 ------- 2 1.1 14.1 -1 33
+ 1.3252 12 14 message 800 ------- 2 1.1 14.1 -1 33
r 1.3252 10 12 message 800 ------- 2 4.1 14.1 -1 36
+ 1.3252 12 14 message 800 ------- 2 4.1 14.1 -1 36
r 1.3252 11 12 message 800 ------- 2 7.1 14.1 -1 39
+ 1.3252 12 14 message 800 ------- 2 7.1 14.1 -1 39
- 1.3252 12 14 message 800 ------- 2 3.2 14.1 -1 35
r 1.328 12 14 message 800 ------- 2 1.1 14.1 -1 15
r 1.329467 9 12 message 800 ------- 2 2.1 14.1 -1 34
+ 1.329467 12 14 message 800 ------- 2 2.1 14.1 -1 34
r 1.329467 10 12 message 800 ------- 2 5.1 14.1 -1 37
+ 1.329467 12 14 message 800 ------- 2 5.1 14.1 -1 37
d 1.329467 12 14 message 800 ------- 2 5.1 14.1 -1 37
r 1.329467 11 12 message 800 ------- 2 8.1 14.1 -1 40
+ 1.329467 12 14 message 800 ------- 2 8.1 14.1 -1 40
d 1.329467 12 14 message 800 ------- 2 8.1 14.1 -1 40
- 1.329467 12 14 message 800 ------- 2 6.1 14.1 -1 38
r 1.332267 12 14 message 800 ------- 2 4.1 14.1 -1 18
- 1.333733 12 14 message 800 ------- 2 1.1 14.1 -1 33
r 1.336533 12 14 message 800 ------- 2 7.1 14.1 -1 21
- 1.338 12 14 message 800 ------- 2 4.1 14.1 -1 36
r 1.3408 12 14 message 800 ------- 2 2.1 14.1 -1 16
- 1.342267 12 14 message 800 ------- 2 7.1 14.1 -1 39
r 1.3452 12 14 message 800 ------- 2 0.1 14.1 -1 23
- 1.346533 12 14 message 800 ------- 2 2.1 14.1 -1 34
r 1.349467 12 14 message 800 ------- 2 3.2 14.1 -1 26
r 1.353733 12 14 message 800 ------- 2 6.1 14.1 -1 29
r 1.358 12 14 message 800 ------- 2 1.1 14.1 -1 24
r 1.362267 12 14 message 800 ------- 2 4.1 14.1 -1 27
r 1.366533 12 14 message 800 ------- 2 7.1 14.1 -1 30
r 1.3708 12 14 message 800 ------- 2 2.1 14.1 -1 25
r 1.3752 12 14 message 800 ------- 2 0.1 14.1 -1 32
r 1.379467 12 14 message 800 ------- 2 3.2 14.1 -1 35
r 1.383733 12 14 message 800 ------- 2 6.1 14.1 -1 38
r 1.388 12 14 message 800 ------- 2 1.1 14.1 -1 33
r 1.392267 12 14 message 800 ------- 2 4.1 14.1 -1 36
r 1.396533 12 14 message 800 ------- 2 7.1 14.1 -1 39
r 1.4008 12 14 message 800 ------- 2 2.1 14.1 -1 34
v 1.5 eval {set sim_annotation {1.5 0 leave-group -2147483648}}
v 1.5 eval {set sim_annotation {1.5 0 join-group -2147483648}}
+ 1.5 0 9 graft 80 ------- 31 0.0 9.0 -1 41
- 1.5 0 9 graft 80 ------- 31 0.0 9.0 -1 41
v 1.5 eval {set sim_annotation {1.5 1 leave-group -2147483648}}
v 1.5 eval {set sim_annotation {1.5 1 join-group -2147483648}}
+ 1.5 1 9 graft 80 ------- 31 1.0 9.0 -1 42
- 1.5 1 9 graft 80 ------- 31 1.0 9.0 -1 42
v 1.5 eval {set sim_annotation {1.5 2 leave-group -2147483648}}
v 1.5 eval {set sim_annotation {1.5 2 join-group -2147483648}}
+ 1.5 2 9 graft 80 ------- 31 2.0 9.0 -1 43
- 1.5 2 9 graft 80 ------- 31 2.0 9.0 -1 43
v 1.5 eval {set sim_annotation {1.5 3 leave-group -2147483648}}
v 1.5 eval {set sim_annotation {1.5 3 join-group -2147483648}}
+ 1.5 3 10 graft 80 ------- 31 3.0 10.0 -1 44
- 1.5 3 10 graft 80 ------- 31 3.0 10.0 -1 44
v 1.5 eval {set sim_annotation {1.5 4 leave-group -2147483648}}
v 1.5 eval {set sim_annotation {1.5 4 join-group -2147483648}}
+ 1.5 4 10 graft 80 ------- 31 4.0 10.0 -1 45
- 1.5 4 10 graft 80 ------- 31 4.0 10.0 -1 45
v 1.5 eval {set sim_annotation {1.5 5 leave-group -2147483648}}
v 1.5 eval {set sim_annotation {1.5 5 join-group -2147483648}}
+ 1.5 5 10 graft 80 ------- 31 5.0 10.0 -1 46
- 1.5 5 10 graft 80 ------- 31 5.0 10.0 -1 46
v 1.5 eval {set sim_annotation {1.5 6 leave-group -2147483648}}
v 1.5 eval {set sim_annotation {1.5 6 join-group -2147483648}}
+ 1.5 6 11 graft 80 ------- 31 6.0 11.0 -1 47
- 1.5 6 11 graft 80 ------- 31 6.0 11.0 -1 47
v 1.5 eval {set sim_annotation {1.5 7 leave-group -2147483648}}
v 1.5 eval {set sim_annotation {1.5 7 join-group -2147483648}}
+ 1.5 7 11 graft 80 ------- 31 7.0 11.0 -1 48
- 1.5 7 11 graft 80 ------- 31 7.0 11.0 -1 48
v 1.5 eval {set sim_annotation {1.5 8 leave-group -2147483648}}
v 1.5 eval {set sim_annotation {1.5 8 join-group -2147483648}}
+ 1.5 8 11 graft 80 ------- 31 8.0 11.0 -1 49
- 1.5 8 11 graft 80 ------- 31 8.0 11.0 -1 49
r 1.510427 0 9 graft 80 ------- 31 0.0 9.0 -1 41
r 1.510427 1 9 graft 80 ------- 31 1.0 9.0 -1 42
r 1.510427 2 9 graft 80 ------- 31 2.0 9.0 -1 43
r 1.510427 3 10 graft 80 ------- 31 3.0 10.0 -1 44
r 1.510427 4 10 graft 80 ------- 31 4.0 10.0 -1 45